
     Program PWSCF v.7.1 starts on 22Mar2023 at 11:27:14 

     This program is part of the open-source Quantum ESPRESSO suite
     for quantum simulation of materials; please cite
         "P. Giannozzi et al., J. Phys.:Condens. Matter 21 395502 (2009);
         "P. Giannozzi et al., J. Phys.:Condens. Matter 29 465901 (2017);
         "P. Giannozzi et al., J. Chem. Phys. 152 154105 (2020);
          URL http://www.quantum-espresso.org", 
     in publications or presentations arising from this work. More details at
     http://www.quantum-espresso.org/quote

     Parallel version (MPI & OpenMP), running on       1 processor cores
     Number of MPI processes:                 1
     Threads/MPI process:                     1

     MPI processes distributed on     1 nodes
     236227 MiB available memory on the printing compute node when the environment starts

     Reading input from pwmt-i2.in

     Current dimensions of program PWSCF are:
     Max number of different atomic species (ntypx) = 10
     Max number of k-points (npk) =  40000
     Max angular momentum in pseudopotentials (lmaxx) =  4
     Stress calculation not meaningful in isolated systems

     file I.pw-mt_fhi.UPF: wavefunction(s)  5d 4f renormalized
     Message from routine set_cutoff:
     ecutrho < 4*ecutwfc, are you sure?

     Subspace diagonalization in iterative solution of the eigenvalue problem:
     a serial algorithm will be used


     G-vector sticks info
     --------------------
     sticks:   dense  smooth     PW     G-vecs:    dense   smooth      PW
     Sum        1725    1725   1137                53715    53715   29039

     Using Slab Decomposition



     bravais-lattice index     =            1
     lattice parameter (alat)  =      20.0000  a.u.
     unit-cell volume          =    8000.0000 (a.u.)^3
     number of atoms/cell      =            2
     number of atomic types    =            1
     number of electrons       =        14.00
     number of Kohn-Sham states=           14
     kinetic-energy cutoff     =      36.0000  Ry
     charge density cutoff     =      54.0000  Ry
     scf convergence threshold =      1.0E-08
     mixing beta               =       0.7000
     number of iterations used =            8  plain     mixing
     Exchange-correlation= SLA-PW
                           (   1   4   0   0   0   0   0)
     Assuming isolated system, Martyna-Tuckerman method


     celldm(1)=  20.000000  celldm(2)=   0.000000  celldm(3)=   0.000000
     celldm(4)=   0.000000  celldm(5)=   0.000000  celldm(6)=   0.000000

     crystal axes: (cart. coord. in units of alat)
               a(1) = (   1.000000   0.000000   0.000000 )  
               a(2) = (   0.000000   1.000000   0.000000 )  
               a(3) = (   0.000000   0.000000   1.000000 )  

     reciprocal axes: (cart. coord. in units 2 pi/alat)
               b(1) = (  1.000000  0.000000  0.000000 )  
               b(2) = (  0.000000  1.000000  0.000000 )  
               b(3) = (  0.000000  0.000000  1.000000 )  


     PseudoPot. # 1 for I  read from file:
     /global/common/software/nersc/pm-2021q4/sw/qe/pseudo/I.pw-mt_fhi.UPF
     MD5 check sum: 48e92e117c28220f7f8b11262ff5a4f9
     Pseudo is Norm-conserving, Zval =  7.0
     Generated using FHI98PP, converted with fhi2upf.x v.5.0.1
     Using radial grid of  551 points,  3 beta functions with: 
                l(1) =   1
                l(2) =   2
                l(3) =   3

     atomic species   valence    mass     pseudopotential
        I              7.00   126.90447     I ( 1.00)

     No symmetry found



   Cartesian axes

     site n.     atom                  positions (alat units)
         1           I   tau(   1) = (   0.5000000   0.5000000   0.3804746  )
         2           I   tau(   2) = (   0.5000000   0.5000000   0.6195254  )

     number of k points=     1
                       cart. coord. in units 2pi/alat
        k(    1) = (   0.0000000   0.0000000   0.0000000), wk =   2.0000000

     Dense  grid:    53715 G-vectors     FFT dimensions: (  48,  48,  48)

     Estimated max dynamical RAM per process >      99.78 MB

     Initial potential from superposition of free atoms

     starting charge      13.9999, renormalised to      14.0000

     negative rho (up, down):  2.515E-02 0.000E+00
     Starting wfcs are   32 randomized atomic wfcs

     total cpu time spent up to now is        1.1 secs

     Self-consistent Calculation

     iteration #  1     ecut=    36.00 Ry     beta= 0.70
     Davidson diagonalization with overlap
     ethr =  1.00E-02,  avg # of iterations = 12.0

     Threshold (ethr) on eigenvalues was too large:
     Diagonalizing with lowered threshold

     Davidson diagonalization with overlap
     ethr =  2.99E-04,  avg # of iterations =  9.0

     negative rho (up, down):  1.587E-02 0.000E+00

     total cpu time spent up to now is        2.3 secs

     total energy              =     -46.15939654 Ry
     estimated scf accuracy    <       0.04046925 Ry

     iteration #  2     ecut=    36.00 Ry     beta= 0.70
     Davidson diagonalization with overlap
     ethr =  2.89E-04,  avg # of iterations =  2.0

     negative rho (up, down):  1.276E-02 0.000E+00

     total cpu time spent up to now is        2.5 secs

     total energy              =     -46.16317604 Ry
     estimated scf accuracy    <       0.00099085 Ry

     iteration #  3     ecut=    36.00 Ry     beta= 0.70
     Davidson diagonalization with overlap
     ethr =  7.08E-06,  avg # of iterations = 10.0

     negative rho (up, down):  1.220E-02 0.000E+00

     total cpu time spent up to now is        3.1 secs

     total energy              =     -46.16412056 Ry
     estimated scf accuracy    <       0.00016098 Ry

     iteration #  4     ecut=    36.00 Ry     beta= 0.70
     Davidson diagonalization with overlap
     ethr =  1.15E-06,  avg # of iterations =  6.0

     negative rho (up, down):  1.172E-02 0.000E+00

     total cpu time spent up to now is        3.6 secs

     total energy              =     -46.16415920 Ry
     estimated scf accuracy    <       0.00003090 Ry

     iteration #  5     ecut=    36.00 Ry     beta= 0.70
     Davidson diagonalization with overlap
     c_bands:  1 eigenvalues not converged
     ethr =  2.21E-07,  avg # of iterations = 20.0

     negative rho (up, down):  1.170E-02 0.000E+00

     total cpu time spent up to now is        4.2 secs

     total energy              =     -46.16416666 Ry
     estimated scf accuracy    <       0.00000260 Ry

     iteration #  6     ecut=    36.00 Ry     beta= 0.70
     Davidson diagonalization with overlap
     c_bands:  1 eigenvalues not converged
     ethr =  1.86E-08,  avg # of iterations = 20.0

     negative rho (up, down):  1.169E-02 0.000E+00

     total cpu time spent up to now is        4.8 secs

     total energy              =     -46.16416741 Ry
     estimated scf accuracy    <       0.00000004 Ry

     iteration #  7     ecut=    36.00 Ry     beta= 0.70
     Davidson diagonalization with overlap
     ethr =  2.80E-10,  avg # of iterations = 18.0

     negative rho (up, down):  1.168E-02 0.000E+00

     total cpu time spent up to now is        5.5 secs

     total energy              =     -46.16416745 Ry
     estimated scf accuracy    <       0.00000002 Ry

     iteration #  8     ecut=    36.00 Ry     beta= 0.70
     Davidson diagonalization with overlap
     ethr =  1.67E-10,  avg # of iterations =  5.0

     negative rho (up, down):  1.168E-02 0.000E+00

     total cpu time spent up to now is        5.9 secs

     End of self-consistent calculation

          k = 0.0000 0.0000 0.0000 ( 29039 PWs)   bands (ev):

   -19.5682 -16.6531  -9.9153  -8.2425  -8.2425  -6.2111  -6.2111  -3.8937
    -0.6897   0.5324   0.7244   0.7742   0.7742   0.8661

     highest occupied, lowest unoccupied level (ev):    -6.2111   -3.8937

!    total energy              =     -46.16416746 Ry
     estimated scf accuracy    <          2.8E-09 Ry

     The total energy is the sum of the following terms:
     one-electron contribution =    -116.17152353 Ry
     hartree contribution      =      58.32007192 Ry
     xc contribution           =      -8.81045064 Ry
     ewald contribution        =      20.49773479 Ry

     convergence has been achieved in   8 iterations

     Writing all to output data dir ./i2.save/

     init_run     :      0.92s CPU      0.99s WALL (       1 calls)
     electrons    :      4.74s CPU      4.80s WALL (       1 calls)

     Called by init_run:
     wfcinit      :      0.52s CPU      0.55s WALL (       1 calls)
     potinit      :      0.01s CPU      0.02s WALL (       1 calls)
     hinit0       :      0.37s CPU      0.40s WALL (       1 calls)

     Called by electrons:
     c_bands      :      4.45s CPU      4.49s WALL (       9 calls)
     sum_band     :      0.20s CPU      0.21s WALL (       9 calls)
     v_of_rho     :      0.06s CPU      0.06s WALL (       9 calls)
     mix_rho      :      0.03s CPU      0.03s WALL (       9 calls)

     Called by c_bands:
     init_us_2    :      0.11s CPU      0.12s WALL (      19 calls)
     init_us_2:cp :      0.11s CPU      0.12s WALL (      19 calls)
     cegterg      :      4.30s CPU      4.34s WALL (       9 calls)

     Called by *egterg:
     cdiaghg      :      0.04s CPU      0.05s WALL (     110 calls)
     h_psi        :      2.64s CPU      2.67s WALL (     112 calls)
     g_psi        :      0.03s CPU      0.03s WALL (     102 calls)

     Called by h_psi:
     h_psi:calbec :      0.51s CPU      0.51s WALL (     112 calls)
     vloc_psi     :      1.63s CPU      1.66s WALL (     112 calls)
     add_vuspsi   :      0.47s CPU      0.47s WALL (     112 calls)

     General routines
     calbec       :      0.51s CPU      0.51s WALL (     112 calls)
     fft          :      0.35s CPU      0.37s WALL (      28 calls)
     ffts         :      0.01s CPU      0.01s WALL (       9 calls)
     fftw         :      1.62s CPU      1.64s WALL (    1372 calls)

     Parallel routines

     PWSCF        :      5.67s CPU      5.93s WALL


   This run was terminated on:  11:27:20  22Mar2023            

=------------------------------------------------------------------------------=
   JOB DONE.
=------------------------------------------------------------------------------=
Note: The following floating-point exceptions are signalling: IEEE_DENORMAL
