
     Program PWSCF v.7.1 starts on 22Mar2023 at 12: 0:43 

     This program is part of the open-source Quantum ESPRESSO suite
     for quantum simulation of materials; please cite
         "P. Giannozzi et al., J. Phys.:Condens. Matter 21 395502 (2009);
         "P. Giannozzi et al., J. Phys.:Condens. Matter 29 465901 (2017);
         "P. Giannozzi et al., J. Chem. Phys. 152 154105 (2020);
          URL http://www.quantum-espresso.org", 
     in publications or presentations arising from this work. More details at
     http://www.quantum-espresso.org/quote

     Parallel version (MPI & OpenMP), running on       1 processor cores
     Number of MPI processes:                 1
     Threads/MPI process:                     1

     MPI processes distributed on     1 nodes
     236308 MiB available memory on the printing compute node when the environment starts

     Reading input from pwmt-i2.in

     Current dimensions of program PWSCF are:
     Max number of different atomic species (ntypx) = 10
     Max number of k-points (npk) =  40000
     Max angular momentum in pseudopotentials (lmaxx) =  4
     Stress calculation not meaningful in isolated systems

     file I.pw-mt_fhi.UPF: wavefunction(s)  5d 4f renormalized
     Message from routine setup:
     no reason to have ecutrho>4*ecutwfc

     Subspace diagonalization in iterative solution of the eigenvalue problem:
     a serial algorithm will be used


     G-vector sticks info
     --------------------
     sticks:   dense  smooth     PW     G-vecs:    dense   smooth      PW
     Sum        4581    4581   1137               233577   233577   29039

     Using Slab Decomposition



     bravais-lattice index     =            1
     lattice parameter (alat)  =      20.0000  a.u.
     unit-cell volume          =    8000.0000 (a.u.)^3
     number of atoms/cell      =            2
     number of atomic types    =            1
     number of electrons       =        14.00
     number of Kohn-Sham states=           14
     kinetic-energy cutoff     =      36.0000  Ry
     charge density cutoff     =     144.0000  Ry
     scf convergence threshold =      1.0E-08
     mixing beta               =       0.7000
     number of iterations used =            8  plain     mixing
     Exchange-correlation= SLA-PW
                           (   1   4   0   0   0   0   0)
     Assuming isolated system, Martyna-Tuckerman method


     celldm(1)=  20.000000  celldm(2)=   0.000000  celldm(3)=   0.000000
     celldm(4)=   0.000000  celldm(5)=   0.000000  celldm(6)=   0.000000

     crystal axes: (cart. coord. in units of alat)
               a(1) = (   1.000000   0.000000   0.000000 )  
               a(2) = (   0.000000   1.000000   0.000000 )  
               a(3) = (   0.000000   0.000000   1.000000 )  

     reciprocal axes: (cart. coord. in units 2 pi/alat)
               b(1) = (  1.000000  0.000000  0.000000 )  
               b(2) = (  0.000000  1.000000  0.000000 )  
               b(3) = (  0.000000  0.000000  1.000000 )  


     PseudoPot. # 1 for I  read from file:
     /global/common/software/nersc/pm-2021q4/sw/qe/pseudo/I.pw-mt_fhi.UPF
     MD5 check sum: 48e92e117c28220f7f8b11262ff5a4f9
     Pseudo is Norm-conserving, Zval =  7.0
     Generated using FHI98PP, converted with fhi2upf.x v.5.0.1
     Using radial grid of  551 points,  3 beta functions with: 
                l(1) =   1
                l(2) =   2
                l(3) =   3

     atomic species   valence    mass     pseudopotential
        I              7.00   126.90447     I ( 1.00)

     No symmetry found



   Cartesian axes

     site n.     atom                  positions (alat units)
         1           I   tau(   1) = (   0.5000000   0.5000000   0.3804746  )
         2           I   tau(   2) = (   0.5000000   0.5000000   0.6195254  )

     number of k points=     1
                       cart. coord. in units 2pi/alat
        k(    1) = (   0.0000000   0.0000000   0.0000000), wk =   2.0000000

     Dense  grid:   233577 G-vectors     FFT dimensions: (  80,  80,  80)

     Smooth grid:   233577 G-vectors     FFT dimensions: (  80,  80,  80)

     Estimated max dynamical RAM per process >     202.28 MB

     Initial potential from superposition of free atoms

     starting charge      13.9999, renormalised to      14.0000

     negative rho (up, down):  3.781E-05 0.000E+00
     Starting wfcs are   32 randomized atomic wfcs

     total cpu time spent up to now is        1.9 secs

     Self-consistent Calculation

     iteration #  1     ecut=    36.00 Ry     beta= 0.70
     Davidson diagonalization with overlap
     ethr =  1.00E-02,  avg # of iterations = 13.0

     Threshold (ethr) on eigenvalues was too large:
     Diagonalizing with lowered threshold

     Davidson diagonalization with overlap
     ethr =  2.95E-04,  avg # of iterations = 12.0

     negative rho (up, down):  2.405E-06 0.000E+00

     total cpu time spent up to now is        3.6 secs

     total energy              =     -46.16134094 Ry
     estimated scf accuracy    <       0.04018172 Ry

     iteration #  2     ecut=    36.00 Ry     beta= 0.70
     Davidson diagonalization with overlap
     ethr =  2.87E-04,  avg # of iterations =  2.0

     total cpu time spent up to now is        4.0 secs

     total energy              =     -46.16507254 Ry
     estimated scf accuracy    <       0.00096844 Ry

     iteration #  3     ecut=    36.00 Ry     beta= 0.70
     Davidson diagonalization with overlap
     ethr =  6.92E-06,  avg # of iterations = 10.0

     total cpu time spent up to now is        4.9 secs

     total energy              =     -46.16601692 Ry
     estimated scf accuracy    <       0.00014009 Ry

     iteration #  4     ecut=    36.00 Ry     beta= 0.70
     Davidson diagonalization with overlap
     ethr =  1.00E-06,  avg # of iterations =  6.0

     total cpu time spent up to now is        5.6 secs

     total energy              =     -46.16604363 Ry
     estimated scf accuracy    <       0.00002621 Ry

     iteration #  5     ecut=    36.00 Ry     beta= 0.70
     Davidson diagonalization with overlap
     ethr =  1.87E-07,  avg # of iterations = 20.0

     total cpu time spent up to now is        6.6 secs

     total energy              =     -46.16604880 Ry
     estimated scf accuracy    <       0.00000262 Ry

     iteration #  6     ecut=    36.00 Ry     beta= 0.70
     Davidson diagonalization with overlap
     ethr =  1.87E-08,  avg # of iterations =  5.0

     total cpu time spent up to now is        7.2 secs

     total energy              =     -46.16604929 Ry
     estimated scf accuracy    <       0.00000002 Ry

     iteration #  7     ecut=    36.00 Ry     beta= 0.70
     Davidson diagonalization with overlap
     c_bands:  1 eigenvalues not converged
     ethr =  1.60E-10,  avg # of iterations = 20.0

     total cpu time spent up to now is        8.5 secs

     total energy              =     -46.16604934 Ry
     estimated scf accuracy    <       0.00000002 Ry

     iteration #  8     ecut=    36.00 Ry     beta= 0.70
     Davidson diagonalization with overlap
     ethr =  1.22E-10,  avg # of iterations =  6.0

     total cpu time spent up to now is        9.1 secs

     End of self-consistent calculation

          k = 0.0000 0.0000 0.0000 ( 29039 PWs)   bands (ev):

   -19.5758 -16.6610  -9.9251  -8.2488  -8.2488  -6.2179  -6.2179  -3.9065
    -0.6219   0.6905   0.8032   0.8747   0.8747   0.9543

     highest occupied, lowest unoccupied level (ev):    -6.2179   -3.9065

!    total energy              =     -46.16604934 Ry
     estimated scf accuracy    <          3.6E-09 Ry

     The total energy is the sum of the following terms:
     one-electron contribution =    -116.16807806 Ry
     hartree contribution      =      58.31405394 Ry
     xc contribution           =      -8.80976033 Ry
     ewald contribution        =      20.49773511 Ry

     convergence has been achieved in   8 iterations

     Writing all to output data dir ./i2.save/

     init_run     :      1.66s CPU      1.74s WALL (       1 calls)
     electrons    :      7.15s CPU      7.19s WALL (       1 calls)

     Called by init_run:
     wfcinit      :      0.86s CPU      0.88s WALL (       1 calls)
     potinit      :      0.05s CPU      0.07s WALL (       1 calls)
     hinit0       :      0.69s CPU      0.73s WALL (       1 calls)

     Called by electrons:
     c_bands      :      6.24s CPU      6.24s WALL (       9 calls)
     sum_band     :      0.46s CPU      0.46s WALL (       9 calls)
     v_of_rho     :      0.26s CPU      0.27s WALL (       9 calls)
     mix_rho      :      0.13s CPU      0.14s WALL (       9 calls)

     Called by c_bands:
     init_us_2    :      0.12s CPU      0.12s WALL (      19 calls)
     init_us_2:cp :      0.12s CPU      0.12s WALL (      19 calls)
     cegterg      :      6.09s CPU      6.10s WALL (       9 calls)

     Called by *egterg:
     cdiaghg      :      0.03s CPU      0.04s WALL (     102 calls)
     h_psi        :      4.77s CPU      4.78s WALL (     104 calls)
     g_psi        :      0.03s CPU      0.03s WALL (      94 calls)

     Called by h_psi:
     h_psi:calbec :      0.50s CPU      0.50s WALL (     104 calls)
     vloc_psi     :      3.78s CPU      3.79s WALL (     104 calls)
     add_vuspsi   :      0.46s CPU      0.46s WALL (     104 calls)

     General routines
     calbec       :      0.50s CPU      0.50s WALL (     104 calls)
     fft          :      0.72s CPU      0.75s WALL (      37 calls)
     ffts         :      0.06s CPU      0.06s WALL (      18 calls)
     fftw         :      3.66s CPU      3.66s WALL (    1350 calls)
     interpolate  :      0.07s CPU      0.07s WALL (       9 calls)

     Parallel routines

     PWSCF        :      8.83s CPU      9.14s WALL


   This run was terminated on:  12: 0:53  22Mar2023            

=------------------------------------------------------------------------------=
   JOB DONE.
=------------------------------------------------------------------------------=
Note: The following floating-point exceptions are signalling: IEEE_DENORMAL
