
     Program PWSCF v.7.1 starts on 22Mar2023 at 11: 5: 9 

     This program is part of the open-source Quantum ESPRESSO suite
     for quantum simulation of materials; please cite
         "P. Giannozzi et al., J. Phys.:Condens. Matter 21 395502 (2009);
         "P. Giannozzi et al., J. Phys.:Condens. Matter 29 465901 (2017);
         "P. Giannozzi et al., J. Chem. Phys. 152 154105 (2020);
          URL http://www.quantum-espresso.org", 
     in publications or presentations arising from this work. More details at
     http://www.quantum-espresso.org/quote

     Parallel version (MPI & OpenMP), running on       1 processor cores
     Number of MPI processes:                 1
     Threads/MPI process:                     1

     MPI processes distributed on     1 nodes
     229729 MiB available memory on the printing compute node when the environment starts

     Reading input from pwmt-i2.in

     Current dimensions of program PWSCF are:
     Max number of different atomic species (ntypx) = 10
     Max number of k-points (npk) =  40000
     Max angular momentum in pseudopotentials (lmaxx) =  4
     Stress calculation not meaningful in isolated systems

     file I.pw-mt_fhi.UPF: wavefunction(s)  5d 4f renormalized
     Message from routine set_cutoff:
     ecutrho < 4*ecutwfc, are you sure?

     Subspace diagonalization in iterative solution of the eigenvalue problem:
     a serial algorithm will be used


     G-vector sticks info
     --------------------
     sticks:   dense  smooth     PW     G-vecs:    dense   smooth      PW
     Sum        1137    1137   1137                29039    29039   29039

     Using Slab Decomposition



     bravais-lattice index     =            1
     lattice parameter (alat)  =      20.0000  a.u.
     unit-cell volume          =    8000.0000 (a.u.)^3
     number of atoms/cell      =            2
     number of atomic types    =            1
     number of electrons       =        14.00
     number of Kohn-Sham states=           14
     kinetic-energy cutoff     =      36.0000  Ry
     charge density cutoff     =      36.0000  Ry
     scf convergence threshold =      1.0E-08
     mixing beta               =       0.7000
     number of iterations used =            8  plain     mixing
     Exchange-correlation= SLA-PW
                           (   1   4   0   0   0   0   0)
     Assuming isolated system, Martyna-Tuckerman method


     celldm(1)=  20.000000  celldm(2)=   0.000000  celldm(3)=   0.000000
     celldm(4)=   0.000000  celldm(5)=   0.000000  celldm(6)=   0.000000

     crystal axes: (cart. coord. in units of alat)
               a(1) = (   1.000000   0.000000   0.000000 )  
               a(2) = (   0.000000   1.000000   0.000000 )  
               a(3) = (   0.000000   0.000000   1.000000 )  

     reciprocal axes: (cart. coord. in units 2 pi/alat)
               b(1) = (  1.000000  0.000000  0.000000 )  
               b(2) = (  0.000000  1.000000  0.000000 )  
               b(3) = (  0.000000  0.000000  1.000000 )  


     PseudoPot. # 1 for I  read from file:
     /global/common/software/nersc/pm-2021q4/sw/qe/pseudo/I.pw-mt_fhi.UPF
     MD5 check sum: 48e92e117c28220f7f8b11262ff5a4f9
     Pseudo is Norm-conserving, Zval =  7.0
     Generated using FHI98PP, converted with fhi2upf.x v.5.0.1
     Using radial grid of  551 points,  3 beta functions with: 
                l(1) =   1
                l(2) =   2
                l(3) =   3

     atomic species   valence    mass     pseudopotential
        I              7.00   126.90447     I ( 1.00)

     No symmetry found



   Cartesian axes

     site n.     atom                  positions (alat units)
         1           I   tau(   1) = (   0.5000000   0.5000000   0.3804746  )
         2           I   tau(   2) = (   0.5000000   0.5000000   0.6195254  )

     number of k points=     1
                       cart. coord. in units 2pi/alat
        k(    1) = (   0.0000000   0.0000000   0.0000000), wk =   2.0000000

     Dense  grid:    29039 G-vectors     FFT dimensions: (  40,  40,  40)

     Estimated max dynamical RAM per process >      86.27 MB
     Message from routine gk_sort:
     unexpected exit from do-loop

     Initial potential from superposition of free atoms

     starting charge      13.9999, renormalised to      14.0000

     negative rho (up, down):  8.469E-03 0.000E+00
     Starting wfcs are   32 randomized atomic wfcs

     total cpu time spent up to now is        0.9 secs

     Self-consistent Calculation

     iteration #  1     ecut=    36.00 Ry     beta= 0.70
     Davidson diagonalization with overlap
     ethr =  1.00E-02,  avg # of iterations = 11.0

     Threshold (ethr) on eigenvalues was too large:
     Diagonalizing with lowered threshold

     Davidson diagonalization with overlap
     ethr =  2.98E-04,  avg # of iterations = 12.0

     negative rho (up, down):  1.179E-02 0.000E+00

     total cpu time spent up to now is        1.9 secs

     total energy              =     -46.15443834 Ry
     estimated scf accuracy    <       0.04059389 Ry

     iteration #  2     ecut=    36.00 Ry     beta= 0.70
     Davidson diagonalization with overlap
     ethr =  2.90E-04,  avg # of iterations =  3.0

     negative rho (up, down):  1.380E-02 0.000E+00

     total cpu time spent up to now is        2.1 secs

     total energy              =     -46.15803780 Ry
     estimated scf accuracy    <       0.00099664 Ry

     iteration #  3     ecut=    36.00 Ry     beta= 0.70
     Davidson diagonalization with overlap
     ethr =  7.12E-06,  avg # of iterations =  9.0

     negative rho (up, down):  1.405E-02 0.000E+00

     total cpu time spent up to now is        2.7 secs

     total energy              =     -46.15896229 Ry
     estimated scf accuracy    <       0.00017133 Ry

     iteration #  4     ecut=    36.00 Ry     beta= 0.70
     Davidson diagonalization with overlap
     ethr =  1.22E-06,  avg # of iterations =  8.0

     negative rho (up, down):  1.439E-02 0.000E+00

     total cpu time spent up to now is        3.1 secs

     total energy              =     -46.15899906 Ry
     estimated scf accuracy    <       0.00002845 Ry

     iteration #  5     ecut=    36.00 Ry     beta= 0.70
     Davidson diagonalization with overlap
     c_bands:  1 eigenvalues not converged
     ethr =  2.03E-07,  avg # of iterations = 20.0

     negative rho (up, down):  1.443E-02 0.000E+00

     total cpu time spent up to now is        3.6 secs

     total energy              =     -46.15900437 Ry
     estimated scf accuracy    <       0.00000244 Ry

     iteration #  6     ecut=    36.00 Ry     beta= 0.70
     Davidson diagonalization with overlap
     c_bands:  1 eigenvalues not converged
     ethr =  1.74E-08,  avg # of iterations = 20.0

     negative rho (up, down):  1.444E-02 0.000E+00

     total cpu time spent up to now is        4.1 secs

     total energy              =     -46.15900496 Ry
     estimated scf accuracy    <       0.00000007 Ry

     iteration #  7     ecut=    36.00 Ry     beta= 0.70
     Davidson diagonalization with overlap
     c_bands:  1 eigenvalues not converged
     ethr =  5.32E-10,  avg # of iterations = 20.0

     negative rho (up, down):  1.445E-02 0.000E+00

     total cpu time spent up to now is        4.7 secs

     total energy              =     -46.15900487 Ry
     estimated scf accuracy    <       0.00000003 Ry

     iteration #  8     ecut=    36.00 Ry     beta= 0.70
     Davidson diagonalization with overlap
     c_bands:  1 eigenvalues not converged
     ethr =  2.00E-10,  avg # of iterations = 20.0

     negative rho (up, down):  1.445E-02 0.000E+00

     total cpu time spent up to now is        5.1 secs

     End of self-consistent calculation

          k = 0.0000 0.0000 0.0000 ( 29039 PWs)   bands (ev):

   -19.5588 -16.6416  -9.9062  -8.2377  -8.2377  -6.2055  -6.2055  -3.8833
    -0.6935   0.5361   0.7026   0.7764   0.7764   0.8633

     highest occupied, lowest unoccupied level (ev):    -6.2055   -3.8833

!    total energy              =     -46.15900485 Ry
     estimated scf accuracy    <          2.3E-09 Ry

     The total energy is the sum of the following terms:
     one-electron contribution =    -116.16873630 Ry
     hartree contribution      =      58.32231773 Ry
     xc contribution           =      -8.81032144 Ry
     ewald contribution        =      20.49773515 Ry

     convergence has been achieved in   8 iterations

     Writing all to output data dir ./i2.save/

     init_run     :      0.76s CPU      0.80s WALL (       1 calls)
     electrons    :      4.16s CPU      4.38s WALL (       1 calls)

     Called by init_run:
     wfcinit      :      0.44s CPU      0.45s WALL (       1 calls)
     potinit      :      0.01s CPU      0.01s WALL (       1 calls)
     hinit0       :      0.31s CPU      0.32s WALL (       1 calls)

     Called by electrons:
     c_bands      :      3.98s CPU      4.01s WALL (       9 calls)
     sum_band     :      0.14s CPU      0.14s WALL (       9 calls)
     v_of_rho     :      0.03s CPU      0.04s WALL (       9 calls)
     mix_rho      :      0.02s CPU      0.02s WALL (       9 calls)

     Called by c_bands:
     init_us_2    :      0.11s CPU      0.12s WALL (      19 calls)
     init_us_2:cp :      0.11s CPU      0.12s WALL (      19 calls)
     cegterg      :      3.83s CPU      3.86s WALL (       9 calls)

     Called by *egterg:
     cdiaghg      :      0.05s CPU      0.05s WALL (     131 calls)
     h_psi        :      1.97s CPU      1.98s WALL (     133 calls)
     g_psi        :      0.03s CPU      0.03s WALL (     123 calls)

     Called by h_psi:
     h_psi:calbec :      0.52s CPU      0.52s WALL (     133 calls)
     vloc_psi     :      0.94s CPU      0.94s WALL (     133 calls)
     add_vuspsi   :      0.48s CPU      0.48s WALL (     133 calls)

     General routines
     calbec       :      0.52s CPU      0.52s WALL (     133 calls)
     fft          :      0.29s CPU      0.29s WALL (      28 calls)
     ffts         :      0.00s CPU      0.00s WALL (       9 calls)
     fftw         :      0.89s CPU      0.89s WALL (    1400 calls)

     Parallel routines

     PWSCF        :      4.93s CPU      5.42s WALL


   This run was terminated on:  11: 5:15  22Mar2023            

=------------------------------------------------------------------------------=
   JOB DONE.
=------------------------------------------------------------------------------=
Note: The following floating-point exceptions are signalling: IEEE_DENORMAL
