
     Program PWSCF v.7.1 starts on 22Mar2023 at 11:51:49 

     This program is part of the open-source Quantum ESPRESSO suite
     for quantum simulation of materials; please cite
         "P. Giannozzi et al., J. Phys.:Condens. Matter 21 395502 (2009);
         "P. Giannozzi et al., J. Phys.:Condens. Matter 29 465901 (2017);
         "P. Giannozzi et al., J. Chem. Phys. 152 154105 (2020);
          URL http://www.quantum-espresso.org", 
     in publications or presentations arising from this work. More details at
     http://www.quantum-espresso.org/quote

     Parallel version (MPI & OpenMP), running on       1 processor cores
     Number of MPI processes:                 1
     Threads/MPI process:                     1

     MPI processes distributed on     1 nodes
     235972 MiB available memory on the printing compute node when the environment starts

     Reading input from pwmt-i2.in

     Current dimensions of program PWSCF are:
     Max number of different atomic species (ntypx) = 10
     Max number of k-points (npk) =  40000
     Max angular momentum in pseudopotentials (lmaxx) =  4
     Stress calculation not meaningful in isolated systems

     file I.pw-mt_fhi.UPF: wavefunction(s)  5d 4f renormalized
     Message from routine set_cutoff:
     ecutrho < 4*ecutwfc, are you sure?

     Subspace diagonalization in iterative solution of the eigenvalue problem:
     a serial algorithm will be used


     G-vector sticks info
     --------------------
     sticks:   dense  smooth     PW     G-vecs:    dense   smooth      PW
     Sum        3433    3433   1137               151635   151635   29039

     Using Slab Decomposition



     bravais-lattice index     =            1
     lattice parameter (alat)  =      20.0000  a.u.
     unit-cell volume          =    8000.0000 (a.u.)^3
     number of atoms/cell      =            2
     number of atomic types    =            1
     number of electrons       =        14.00
     number of Kohn-Sham states=           14
     kinetic-energy cutoff     =      36.0000  Ry
     charge density cutoff     =     108.0000  Ry
     scf convergence threshold =      1.0E-08
     mixing beta               =       0.7000
     number of iterations used =            8  plain     mixing
     Exchange-correlation= SLA-PW
                           (   1   4   0   0   0   0   0)
     Assuming isolated system, Martyna-Tuckerman method


     celldm(1)=  20.000000  celldm(2)=   0.000000  celldm(3)=   0.000000
     celldm(4)=   0.000000  celldm(5)=   0.000000  celldm(6)=   0.000000

     crystal axes: (cart. coord. in units of alat)
               a(1) = (   1.000000   0.000000   0.000000 )  
               a(2) = (   0.000000   1.000000   0.000000 )  
               a(3) = (   0.000000   0.000000   1.000000 )  

     reciprocal axes: (cart. coord. in units 2 pi/alat)
               b(1) = (  1.000000  0.000000  0.000000 )  
               b(2) = (  0.000000  1.000000  0.000000 )  
               b(3) = (  0.000000  0.000000  1.000000 )  


     PseudoPot. # 1 for I  read from file:
     /global/common/software/nersc/pm-2021q4/sw/qe/pseudo/I.pw-mt_fhi.UPF
     MD5 check sum: 48e92e117c28220f7f8b11262ff5a4f9
     Pseudo is Norm-conserving, Zval =  7.0
     Generated using FHI98PP, converted with fhi2upf.x v.5.0.1
     Using radial grid of  551 points,  3 beta functions with: 
                l(1) =   1
                l(2) =   2
                l(3) =   3

     atomic species   valence    mass     pseudopotential
        I              7.00   126.90447     I ( 1.00)

     No symmetry found



   Cartesian axes

     site n.     atom                  positions (alat units)
         1           I   tau(   1) = (   0.5000000   0.5000000   0.3804746  )
         2           I   tau(   2) = (   0.5000000   0.5000000   0.6195254  )

     number of k points=     1
                       cart. coord. in units 2pi/alat
        k(    1) = (   0.0000000   0.0000000   0.0000000), wk =   2.0000000

     Dense  grid:   151635 G-vectors     FFT dimensions: (  72,  72,  72)

     Estimated max dynamical RAM per process >     158.62 MB

     Initial potential from superposition of free atoms

     starting charge      13.9999, renormalised to      14.0000

     negative rho (up, down):  5.164E-04 0.000E+00
     Starting wfcs are   32 randomized atomic wfcs

     total cpu time spent up to now is        1.7 secs

     Self-consistent Calculation

     iteration #  1     ecut=    36.00 Ry     beta= 0.70
     Davidson diagonalization with overlap
     ethr =  1.00E-02,  avg # of iterations = 13.0

     Threshold (ethr) on eigenvalues was too large:
     Diagonalizing with lowered threshold

     Davidson diagonalization with overlap
     ethr =  2.95E-04,  avg # of iterations = 12.0

     negative rho (up, down):  7.607E-05 0.000E+00

     total cpu time spent up to now is        3.1 secs

     total energy              =     -46.16108339 Ry
     estimated scf accuracy    <       0.04022969 Ry

     iteration #  2     ecut=    36.00 Ry     beta= 0.70
     Davidson diagonalization with overlap
     ethr =  2.87E-04,  avg # of iterations =  2.0

     negative rho (up, down):  1.093E-05 0.000E+00

     total cpu time spent up to now is        3.4 secs

     total energy              =     -46.16480777 Ry
     estimated scf accuracy    <       0.00096266 Ry

     iteration #  3     ecut=    36.00 Ry     beta= 0.70
     Davidson diagonalization with overlap
     ethr =  6.88E-06,  avg # of iterations = 10.0

     negative rho (up, down):  2.566E-05 0.000E+00

     total cpu time spent up to now is        4.1 secs

     total energy              =     -46.16576041 Ry
     estimated scf accuracy    <       0.00013517 Ry

     iteration #  4     ecut=    36.00 Ry     beta= 0.70
     Davidson diagonalization with overlap
     ethr =  9.66E-07,  avg # of iterations =  8.0

     negative rho (up, down):  3.969E-05 0.000E+00

     total cpu time spent up to now is        4.7 secs

     total energy              =     -46.16578502 Ry
     estimated scf accuracy    <       0.00002438 Ry

     iteration #  5     ecut=    36.00 Ry     beta= 0.70
     Davidson diagonalization with overlap
     c_bands:  1 eigenvalues not converged
     ethr =  1.74E-07,  avg # of iterations = 20.0

     negative rho (up, down):  4.066E-05 0.000E+00

     total cpu time spent up to now is        5.5 secs

     total energy              =     -46.16578982 Ry
     estimated scf accuracy    <       0.00000259 Ry

     iteration #  6     ecut=    36.00 Ry     beta= 0.70
     Davidson diagonalization with overlap
     ethr =  1.85E-08,  avg # of iterations =  7.0

     negative rho (up, down):  4.111E-05 0.000E+00

     total cpu time spent up to now is        6.0 secs

     total energy              =     -46.16579032 Ry
     estimated scf accuracy    <       0.00000003 Ry

     iteration #  7     ecut=    36.00 Ry     beta= 0.70
     Davidson diagonalization with overlap
     c_bands:  1 eigenvalues not converged
     ethr =  1.84E-10,  avg # of iterations = 20.0

     negative rho (up, down):  4.119E-05 0.000E+00

     total cpu time spent up to now is        7.1 secs

     total energy              =     -46.16579037 Ry
     estimated scf accuracy    <       0.00000002 Ry

     iteration #  8     ecut=    36.00 Ry     beta= 0.70
     Davidson diagonalization with overlap
     ethr =  1.43E-10,  avg # of iterations = 18.0

     negative rho (up, down):  4.128E-05 0.000E+00

     total cpu time spent up to now is        7.8 secs

     End of self-consistent calculation

          k = 0.0000 0.0000 0.0000 ( 29039 PWs)   bands (ev):

   -19.5743 -16.6595  -9.9231  -8.2475  -8.2475  -6.2165  -6.2165  -3.9038
    -0.6220   0.6841   0.8031   0.8750   0.8750   0.9563

     highest occupied, lowest unoccupied level (ev):    -6.2165   -3.9038

!    total energy              =     -46.16579037 Ry
     estimated scf accuracy    <          3.7E-09 Ry

     The total energy is the sum of the following terms:
     one-electron contribution =    -116.16902545 Ry
     hartree contribution      =      58.31541066 Ry
     xc contribution           =      -8.80991072 Ry
     ewald contribution        =      20.49773514 Ry

     convergence has been achieved in   8 iterations

     Writing all to output data dir ./i2.save/

     init_run     :      1.51s CPU      1.57s WALL (       1 calls)
     electrons    :      6.06s CPU      6.11s WALL (       1 calls)

     Called by init_run:
     wfcinit      :      0.85s CPU      0.87s WALL (       1 calls)
     potinit      :      0.03s CPU      0.05s WALL (       1 calls)
     hinit0       :      0.59s CPU      0.61s WALL (       1 calls)

     Called by electrons:
     c_bands      :      5.46s CPU      5.48s WALL (       9 calls)
     sum_band     :      0.33s CPU      0.33s WALL (       9 calls)
     v_of_rho     :      0.19s CPU      0.20s WALL (       9 calls)
     mix_rho      :      0.08s CPU      0.09s WALL (       9 calls)

     Called by c_bands:
     init_us_2    :      0.11s CPU      0.12s WALL (      19 calls)
     init_us_2:cp :      0.11s CPU      0.12s WALL (      19 calls)
     cegterg      :      5.32s CPU      5.34s WALL (       9 calls)

     Called by *egterg:
     cdiaghg      :      0.04s CPU      0.05s WALL (     118 calls)
     h_psi        :      3.86s CPU      3.87s WALL (     120 calls)
     g_psi        :      0.03s CPU      0.03s WALL (     110 calls)

     Called by h_psi:
     h_psi:calbec :      0.52s CPU      0.52s WALL (     120 calls)
     vloc_psi     :      2.83s CPU      2.84s WALL (     120 calls)
     add_vuspsi   :      0.48s CPU      0.48s WALL (     120 calls)

     General routines
     calbec       :      0.52s CPU      0.52s WALL (     120 calls)
     fft          :      0.58s CPU      0.59s WALL (      28 calls)
     ffts         :      0.02s CPU      0.02s WALL (       9 calls)
     fftw         :      2.70s CPU      2.70s WALL (    1398 calls)

     Parallel routines

     PWSCF        :      7.58s CPU      7.84s WALL


   This run was terminated on:  11:51:57  22Mar2023            

=------------------------------------------------------------------------------=
   JOB DONE.
=------------------------------------------------------------------------------=
Note: The following floating-point exceptions are signalling: IEEE_DENORMAL
