
     Program PWSCF v.7.0 starts on 23Jan2023 at 16:13:42 

     This program is part of the open-source Quantum ESPRESSO suite
     for quantum simulation of materials; please cite
         "P. Giannozzi et al., J. Phys.:Condens. Matter 21 395502 (2009);
         "P. Giannozzi et al., J. Phys.:Condens. Matter 29 465901 (2017);
         "P. Giannozzi et al., J. Chem. Phys. 152 154105 (2020);
          URL http://www.quantum-espresso.org", 
     in publications or presentations arising from this work. More details at
     http://www.quantum-espresso.org/quote

     Parallel version (MPI & OpenMP), running on       1 processor cores
     Number of MPI processes:                 1
     Threads/MPI process:                     1

     MPI processes distributed on     1 nodes
     233523 MiB available memory on the printing compute node when the environment starts
 
     Reading input from pwmt-si.in

     Current dimensions of program PWSCF are:
     Max number of different atomic species (ntypx) = 10
     Max number of k-points (npk) =  40000
     Max angular momentum in pseudopotentials (lmaxx) =  4
     file Si.pw-mt_fhi.UPF: wavefunction(s)  4f renormalized
     Message from routine set_cutoff:
     ecutrho < 4*ecutwfc, are you sure?
     Found identity + (  0.0000 -0.5000 -0.5000) symmetry
     This is a supercell, fractional translations are disabled

     Subspace diagonalization in iterative solution of the eigenvalue problem:
     a serial algorithm will be used

 
     G-vector sticks info
     --------------------
     sticks:   dense  smooth     PW     G-vecs:    dense   smooth      PW
     Sum         885     885    437                20005    20005    7075
 
     Using Slab Decomposition
 


     bravais-lattice index     =            1
     lattice parameter (alat)  =      10.1737  a.u.
     unit-cell volume          =    1053.0197 (a.u.)^3
     number of atoms/cell      =            8
     number of atomic types    =            1
     number of electrons       =        32.00
     number of Kohn-Sham states=           32
     kinetic-energy cutoff     =      54.0000  Ry
     charge density cutoff     =     108.0000  Ry
     scf convergence threshold =      1.0E-08
     mixing beta               =       0.7000
     number of iterations used =            8  plain     mixing
     Exchange-correlation= SLA-PW
                           (   1   4   0   0   0   0   0)

     GPU acceleration is ACTIVE.


     celldm(1)=  10.173698  celldm(2)=   0.000000  celldm(3)=   0.000000
     celldm(4)=   0.000000  celldm(5)=   0.000000  celldm(6)=   0.000000

     crystal axes: (cart. coord. in units of alat)
               a(1) = (   1.000000   0.000000   0.000000 )  
               a(2) = (   0.000000   1.000000   0.000000 )  
               a(3) = (   0.000000   0.000000   1.000000 )  

     reciprocal axes: (cart. coord. in units 2 pi/alat)
               b(1) = (  1.000000  0.000000  0.000000 )  
               b(2) = (  0.000000  1.000000  0.000000 )  
               b(3) = (  0.000000  0.000000  1.000000 )  


     PseudoPot. # 1 for Si read from file:
     /global/common/software/nersc/pm-2021q4/sw/qe/qe-7.0/pseudo/Si.pw-mt_fhi.UPF
     MD5 check sum: d581ac71374b31d983c532c8bb0e3c43
     Pseudo is Norm-conserving, Zval =  4.0
     Generated using FHI98PP, converted with fhi2upf.x v.5.0.1
     Using radial grid of  495 points,  3 beta functions with: 
                l(1) =   0
                l(2) =   1
                l(3) =   3

     atomic species   valence    mass     pseudopotential
        Si             4.00    28.08600     Si( 1.00)

     No symmetry found



   Cartesian axes

     site n.     atom                  positions (alat units)
         1           Si  tau(   1) = (   0.0000000   0.0000000   0.0000000  )
         2           Si  tau(   2) = (   0.0000000   0.5000000   0.5000000  )
         3           Si  tau(   3) = (   0.5000000   0.0000000   0.5000000  )
         4           Si  tau(   4) = (   0.5000000   0.5000000   0.0000000  )
         5           Si  tau(   5) = (   0.2500000   0.2500000   0.2500000  )
         6           Si  tau(   6) = (   0.7500000   0.7500000   0.2500000  )
         7           Si  tau(   7) = (   0.2500000   0.7500000   0.7500000  )
         8           Si  tau(   8) = (   0.7500000   0.2500000   0.7500000  )

     number of k points=     1
                       cart. coord. in units 2pi/alat
        k(    1) = (   0.0000000   0.0000000   0.0000000), wk =   2.0000000

     Dense  grid:    20005 G-vectors     FFT dimensions: (  36,  36,  36)

     Estimated max dynamical RAM per process >      53.13 MB

     Initial potential from superposition of free atoms

     starting charge      31.9949, renormalised to      32.0000
     Starting wfcs are  128 randomized atomic wfcs

     total cpu time spent up to now is        4.4 secs

     Self-consistent Calculation

     iteration #  1     ecut=    54.00 Ry     beta= 0.70
     Davidson diagonalization with overlap
     ethr =  1.00E-02,  avg # of iterations =  2.0

     total cpu time spent up to now is        4.4 secs

     total energy              =     -62.71111836 Ry
     estimated scf accuracy    <       0.48656644 Ry

     iteration #  2     ecut=    54.00 Ry     beta= 0.70
     Davidson diagonalization with overlap
     ethr =  1.52E-03,  avg # of iterations =  4.0

     total cpu time spent up to now is        4.4 secs

     total energy              =     -62.73653963 Ry
     estimated scf accuracy    <       0.01673189 Ry

     iteration #  3     ecut=    54.00 Ry     beta= 0.70
     Davidson diagonalization with overlap
     ethr =  5.23E-05,  avg # of iterations =  2.0

     total cpu time spent up to now is        4.4 secs

     total energy              =     -62.73859738 Ry
     estimated scf accuracy    <       0.00042281 Ry

     iteration #  4     ecut=    54.00 Ry     beta= 0.70
     Davidson diagonalization with overlap
     ethr =  1.32E-06,  avg # of iterations =  4.0

     total cpu time spent up to now is        4.5 secs

     total energy              =     -62.73867011 Ry
     estimated scf accuracy    <       0.00006282 Ry

     iteration #  5     ecut=    54.00 Ry     beta= 0.70
     Davidson diagonalization with overlap
     ethr =  1.96E-07,  avg # of iterations =  4.0

     total cpu time spent up to now is        4.5 secs

     total energy              =     -62.73867935 Ry
     estimated scf accuracy    <       0.00003279 Ry

     iteration #  6     ecut=    54.00 Ry     beta= 0.70
     Davidson diagonalization with overlap
     ethr =  1.02E-07,  avg # of iterations =  3.0

     total cpu time spent up to now is        4.5 secs

     total energy              =     -62.73868389 Ry
     estimated scf accuracy    <       0.00000036 Ry

     iteration #  7     ecut=    54.00 Ry     beta= 0.70
     Davidson diagonalization with overlap
     ethr =  1.12E-09,  avg # of iterations =  7.0

     total cpu time spent up to now is        4.5 secs

     total energy              =     -62.73868399 Ry
     estimated scf accuracy    <       0.00000009 Ry

     iteration #  8     ecut=    54.00 Ry     beta= 0.70
     Davidson diagonalization with overlap
     ethr =  2.85E-10,  avg # of iterations =  2.0

     total cpu time spent up to now is        4.6 secs

     total energy              =     -62.73868399 Ry
     estimated scf accuracy    <       0.00000001 Ry

     iteration #  9     ecut=    54.00 Ry     beta= 0.70
     Davidson diagonalization with overlap
     ethr =  3.24E-11,  avg # of iterations =  4.0

     total cpu time spent up to now is        4.6 secs

     End of self-consistent calculation

          k = 0.0000 0.0000 0.0000 (  7075 PWs)   bands (ev):

    -5.6229  -1.3445  -1.3445  -1.3444  -1.3444  -1.3444  -1.3444   3.6110
     3.6110   3.6110   3.6110   3.6110   3.6110   6.6079   6.6079   6.6079
     6.9884   6.9884   6.9884   6.9884   6.9884   6.9884   9.0312   9.0312
     9.0312  10.0051  14.1370  14.2419  14.2419  16.7195  16.7196  16.7196

     highest occupied, lowest unoccupied level (ev):     6.6079    6.9884

!    total energy              =     -62.73868399 Ry
     estimated scf accuracy    <          2.4E-09 Ry

     The total energy is the sum of the following terms:
     one-electron contribution =      19.58875742 Ry
     hartree contribution      =       5.01243006 Ry
     xc contribution           =     -19.56607286 Ry
     ewald contribution        =     -67.77379862 Ry

     convergence has been achieved in   9 iterations


     Computing stress (Cartesian axis) and pressure

          total   stress  (Ry/bohr**3)                   (kbar)     P=       89.90
   0.00061111   0.00000000   0.00000000           89.90        0.00        0.00
   0.00000000   0.00061111   0.00000000            0.00       89.90        0.00
   0.00000000   0.00000000   0.00061111            0.00        0.00       89.90


     Writing all to output data dir ./silicon.save/
 
     init_run     :      0.46s CPU      4.27s WALL (       1 calls)
     electrons    :      0.18s CPU      0.20s WALL (       1 calls)
     stress       :      0.05s CPU      0.06s WALL (       1 calls)

     Called by init_run:
     wfcinit      :      0.44s CPU      4.22s WALL (       1 calls)
                                        4.22s GPU  (       1 calls)
     potinit      :      0.00s CPU      0.00s WALL (       1 calls)
     hinit0       :      0.01s CPU      0.02s WALL (       1 calls)

     Called by electrons:
     c_bands      :      0.13s CPU      0.14s WALL (       9 calls)
     sum_band     :      0.02s CPU      0.02s WALL (       9 calls)
     v_of_rho     :      0.01s CPU      0.01s WALL (      10 calls)
     mix_rho      :      0.01s CPU      0.02s WALL (       9 calls)

     Called by c_bands:
     init_us_2    :      0.00s CPU      0.01s WALL (      19 calls)
     init_us_2:gp :      0.00s CPU      0.00s WALL (      19 calls)
     cegterg      :      0.12s CPU      0.13s WALL (       9 calls)

     Called by *egterg:
     cdiaghg      :      0.11s CPU      1.08s WALL (      41 calls)
                                        1.08s GPU  (      41 calls)
     h_psi        :      0.40s CPU      3.22s WALL (      42 calls)
                                        3.22s GPU  (      42 calls)
     g_psi        :      0.00s CPU      0.00s WALL (      32 calls)
                                        0.00s GPU  (      32 calls)

     Called by h_psi:
     h_psi:calbec :      0.36s CPU      3.12s WALL (      42 calls)
                                        3.12s GPU  (      42 calls)
     vloc_psi     :      0.03s CPU      0.10s WALL (      42 calls)
                                        0.10s GPU  (      42 calls)
     add_vuspsi   :      0.00s CPU      0.01s WALL (      42 calls)
                                        0.00s GPU  (      42 calls)

     General routines
     calbec       :      0.36s CPU      3.11s WALL (      43 calls)
     fft          :      0.01s CPU      0.01s WALL (      32 calls)
                                        0.00s GPU  (       2 calls)
     ffts         :      0.00s CPU      0.00s WALL (       9 calls)
     fftw         :      0.02s CPU      0.10s WALL (     158 calls)
                                        0.09s GPU  (     158 calls)
 
     Parallel routines
 
     PWSCF        :      0.71s CPU      4.67s WALL

 
   This run was terminated on:  16:13:46  23Jan2023            

=------------------------------------------------------------------------------=
   JOB DONE.
=------------------------------------------------------------------------------=
Warning: ieee_divide_by_zero is signaling
Warning: ieee_inexact is signaling
FORTRAN STOP
