<UPF version="2.0.1">
<PP_INFO>
Generated using FHI98PP, converted with fhi2upf.x v.5.0.1
Author: Abinit web site
Generation date: 10-Jul-2012, PG
Pseudopotential type: SL
Element: Cl
Functional: SLA-PW

Suggested minimum cutoff for wavefunctions:   0. Ry
Suggested minimum cutoff for charge density:   0. Ry
The Pseudo was generated with a Scalar-Relativistic Calculation
L component and cutoff radius for Local Potential:  2   0.0000

Valence configuration:
nl pn  l   occ       Rcut    Rcut US       E pseu
3s  3  0  2.00      0.000      0.000     0.000000
3p  3  1  5.00      0.000      0.000     0.000000
3d  3  2  0.00      0.000      0.000     0.000000
4f  4  3  0.00      0.000      0.000     0.000000

Generation configuration: not available.
Comment:
chlorine, fhi98PP : Trouiller-Martins-type, LDA Ceperley/Alder Perdew/Wang (1992
</PP_INFO>
<!--                               -->
<!-- END OF HUMAN READABLE SECTION -->
<!--                               -->
<PP_HEADER generated="Generated using FHI98PP, converted with fhi2upf.x v.5.0.1"
author="Abinit web site"
date="10-Jul-2012, PG"
comment="chlorine, fhi98PP : Trouiller-Martins-type, LDA Ceperley/Alder Perdew/Wang (1992"
element="Cl"
pseudo_type="SL"
relativistic="scalar"
is_ultrasoft="F"
is_paw="F"
is_coulomb="F"
has_so="F"
has_wfc="F"
has_gipaw="F"
paw_as_gipaw="F"
core_correction="F"
functional="SLA-PW"
z_valence="7.000000000000000E+000"
total_psenergy="0.000000000000000E+000"
wfc_cutoff="0.000000000000000E+000"
rho_cutoff="0.000000000000000E+000"
l_max="3"
l_max_rho="0"
l_local="2"
mesh_size="503"
number_of_wfc="4"
number_of_proj="3"/>
<PP_MESH dx="2.439988682353512E-002" mesh="503" xmin="-5.075173815233826E+000" rmax="7.673485408834701E+001"
zmesh="1.700000000000000E+001">
<PP_R type="real" size="503" columns="4">
3.676470588235300E-004  3.767279411764700E-004  3.860331213235300E-004  3.955681394202200E-004
4.053386724639000E-004  4.153505376737600E-004  4.256096959543000E-004  4.361222554443700E-004
4.468944751538500E-004  4.579327686901500E-004  4.692437080767900E-004  4.808340276662900E-004
4.927106281496500E-004  5.048805806649400E-004  5.173511310073700E-004  5.301297039432500E-004
5.432239076306500E-004  5.566415381491300E-004  5.703905841414100E-004  5.844792315697000E-004
5.989158685894700E-004  6.137090905436300E-004  6.288677050800600E-004  6.444007373955400E-004
6.603174356092101E-004  6.766272762687600E-004  6.933399699925900E-004  7.104654672514099E-004
7.280139642925200E-004  7.459959092105500E-004  7.644220081680500E-004  7.833032317698000E-004
8.026508215945100E-004  8.224762968879001E-004  8.427914614210300E-004  8.636084105181300E-004
8.849395382579200E-004  9.067975448528900E-004  9.291954442107600E-004  9.521465716827700E-004
9.756645920033300E-004  9.997635074258100E-004  1.024457666059200E-003  1.049761770410900E-003
1.075690886140000E-003  1.102260451027700E-003  1.129486284168100E-003  1.157384595387000E-003
1.185971994893100E-003  1.215265503167000E-003  1.245282561095200E-003  1.276041040354200E-003
1.307559254051000E-003  1.339855967626000E-003  1.372950410026400E-003  1.406862285154100E-003
1.441611783597400E-003  1.477219594652200E-003  1.513706918640100E-003  1.551095479530500E-003
1.589407537874900E-003  1.628665904060500E-003  1.668893951890700E-003  1.710115632502400E-003
1.752355488625300E-003  1.795638669194300E-003  1.839990944323400E-003  1.885438720648200E-003
1.932009057048200E-003  1.979729680757300E-003  2.028629003872000E-003  2.078736140267600E-003
2.130080922932200E-003  2.182693921728700E-003  2.236606461595400E-003  2.291850641196800E-003
2.348459352034300E-003  2.406466298029600E-003  2.465906015590900E-003  2.526813894176000E-003
2.589226197362100E-003  2.653180084437000E-003  2.718713632522600E-003  2.785865859245900E-003
2.854676745969300E-003  2.925187261594700E-003  2.997439386956100E-003  3.071476139813900E-003
3.147341600467300E-003  3.225080937998900E-003  3.304740437167400E-003  3.386367525965500E-003
3.470010803856800E-003  3.555720070712100E-003  3.643546356458700E-003  3.733541951463200E-003
3.825760437664300E-003  3.920256720474600E-003  4.017087061470400E-003  4.116309111888700E-003
4.217981946952300E-003  4.322166101042100E-003  4.428923603737800E-003  4.538318016750100E-003
4.650414471763800E-003  4.765279709216400E-003  4.882982118034100E-003  5.003591776349500E-003
5.127180493225300E-003  5.253821851408000E-003  5.383591251137800E-003  5.516565955040900E-003
5.652825134130400E-003  5.792449914943400E-003  5.935523427842500E-003  6.082130856510200E-003
6.232359488666000E-003  6.386298768036100E-003  6.544040347606600E-003  6.705678144192400E-003
6.871308394354000E-003  7.041029711694500E-003  7.214943145573400E-003  7.393152241269100E-003
7.575763101628400E-003  7.762884450238600E-003  7.954627696159500E-003  8.151107000254700E-003
8.352439343160900E-003  8.558744594937001E-003  8.770145586432000E-003  8.986768182416800E-003
9.208741356522500E-003  9.436197268028600E-003  9.669271340548900E-003  9.908102342660499E-003
1.015283247052400E-002  1.040360743254600E-002  1.066057653613000E-002  1.092389277657200E-002
1.119371292815400E-002  1.147019763747900E-002  1.175351151912500E-002  1.204382325364700E-002
1.234130568801200E-002  1.264613593850600E-002  1.295849549618700E-002  1.327857033494300E-002
1.360655102221600E-002  1.394263283246500E-002  1.428701586342700E-002  1.463990515525400E-002
1.500151081258800E-002  1.537204812965900E-002  1.575173771846200E-002  1.614080564010800E-002
1.653948353941900E-002  1.694800878284200E-002  1.736662459977800E-002  1.779558022739300E-002
1.823513105901000E-002  1.868553879616700E-002  1.914707160443200E-002  1.962000427306200E-002
2.010461837860700E-002  2.060120245255800E-002  2.111005215313600E-002  2.163147044131900E-002
2.216576776121900E-002  2.271326222492100E-002  2.327427980187700E-002  2.384915451298300E-002
2.443822862945400E-002  2.504185287660200E-002  2.566038664265400E-002  2.629419819272700E-002
2.694366488808800E-002  2.760917341082300E-002  2.829111999407100E-002  2.898991065792400E-002
2.970596145117500E-002  3.043969869901900E-002  3.119155925688500E-002  3.196199077053000E-002
3.275145194256200E-002  3.356041280554300E-002  3.438935500184000E-002  3.523877207038500E-002
3.610916974052400E-002  3.700106623311500E-002  3.791499256907300E-002  3.885149288552900E-002
3.981112475980100E-002  4.079445954136900E-002  4.180208269204000E-002  4.283459413453400E-002
4.389260860965700E-002  4.497675604231500E-002  4.608768191656000E-002  4.722604765989900E-002
4.839253103709900E-002  4.958782655371500E-002  5.081264586959200E-002  5.206771822257100E-002
5.335379086266900E-002  5.467162949697600E-002  5.602201874555200E-002  5.740576260856700E-002
5.882368494499800E-002  6.027662996314000E-002  6.176546272322900E-002  6.329106965249300E-002
6.485435907291000E-002  6.645626174201100E-002  6.809773140703800E-002  6.977974537279200E-002
7.150330508350000E-002  7.326943671906300E-002  7.507919180602300E-002  7.693364784363201E-002
7.883390894537000E-002  8.078110649632100E-002  8.277639982678001E-002  8.482097690250100E-002
8.691605503199300E-002  8.906288159128301E-002  9.126273476658800E-002  9.351692431532301E-002
9.582679234591100E-002  9.819371411685500E-002  1.006190988555400E-001  1.031043905972700E-001
1.056510690450300E-001  1.082606504504400E-001  1.109346885165600E-001  1.136747753229200E-001
1.164825422734000E-001  1.193596610675500E-001  1.223078446959200E-001  1.253288484599100E-001
1.284244710168700E-001  1.315965554509900E-001  1.348469903706300E-001  1.381777110327800E-001
1.415907004952900E-001  1.450879907975200E-001  1.486716641702200E-001  1.523438542752300E-001
1.561067474758200E-001  1.599625841384800E-001  1.639136599667000E-001  1.679623273678800E-001
1.721109968538600E-001  1.763621384761500E-001  1.807182832965100E-001  1.851820248939400E-001
1.897560209088200E-001  1.944429946252700E-001  1.992457365925100E-001  2.041671062863400E-001
2.092100338116200E-001  2.143775216467600E-001  2.196726464314400E-001  2.250985607983000E-001
2.306584952500100E-001  2.363557600826900E-001  2.421937473567300E-001  2.481759329164400E-001
2.543058784594800E-001  2.605872336574300E-001  2.670237383287700E-001  2.736192246654900E-001
2.803776195147200E-001  2.873029467167400E-001  2.943993295006400E-001  3.016709929393100E-001
3.091222664649100E-001  3.167575864465900E-001  3.245814988318200E-001  3.325986618529700E-001
3.408138488007400E-001  3.492319508661100E-001  3.578579800525100E-001  3.666970721598000E-001
3.757544898421500E-001  3.850356257412500E-001  3.945460056970600E-001  4.042912920377800E-001
4.142772869511100E-001  4.245099359388000E-001  4.349953313564900E-001  4.457397160410000E-001
4.567494870272100E-001  4.680311993567800E-001  4.795915699808900E-001  4.914374817594200E-001
5.035759875588800E-001  5.160143144515900E-001  5.287598680185400E-001  5.418202367586000E-001
5.552031966065299E-001  5.689167155627201E-001  5.829689584371101E-001  5.973682917105100E-001
6.121232885157600E-001  6.272427337421000E-001  6.427356292655300E-001  6.586111993083900E-001
6.748788959313100E-001  6.915484046608100E-001  7.086296502559301E-001  7.261328026172500E-001
7.440682828419000E-001  7.624467694280900E-001  7.812792046329700E-001  8.005768009874000E-001
8.203510479717900E-001  8.406137188566900E-001  8.613768777124500E-001  8.826528865919500E-001
9.044544128907700E-001  9.267944368891700E-001  9.496862594803400E-001  9.731435100895000E-001
9.971801547887100E-001  1.021810504612000E+000  1.047049224075900E+000  1.072911339910600E+000
1.099412250006400E+000  1.126567732581500E+000  1.154393955576300E+000  1.182907486279000E+000
1.212125301190100E+000  1.242064796129500E+000  1.272743796593900E+000  1.304180568369800E+000
1.336393828408500E+000  1.369402755970200E+000  1.403227004042700E+000  1.437886711042500E+000
1.473402512805300E+000  1.509795554871600E+000  1.547087505076900E+000  1.585300566452300E+000
1.624457490443700E+000  1.664581590457600E+000  1.705696755741900E+000  1.747827465608800E+000
1.790998804009300E+000  1.835236474468300E+000  1.880566815387700E+000  1.927016815727800E+000
1.974614131076200E+000  2.023387100113800E+000  2.073364761486600E+000  2.124576871095400E+000
2.177053919811400E+000  2.230827151630800E+000  2.285928582276000E+000  2.342391018258300E+000
2.400248076409200E+000  2.459534203896500E+000  2.520284698732800E+000  2.582535730791500E+000
2.646324363342000E+000  2.711688575116600E+000  2.778667282922000E+000  2.847300364810100E+000
2.917628683820900E+000  2.989694112311300E+000  3.063539556885400E+000  3.139208983940500E+000
3.216747445843800E+000  3.296201107756100E+000  3.377617275117700E+000  3.461044421813100E+000
3.546532219031900E+000  3.634131564842000E+000  3.723894614493600E+000  3.815874811471600E+000
3.910126919314900E+000  4.006707054222000E+000  4.105672718461300E+000  4.207082834607300E+000
4.310997780622100E+000  4.417479425803500E+000  4.526591167620800E+000  4.638397969461000E+000
4.752966399306700E+000  4.870364669369600E+000  4.990662676703000E+000  5.113932044817600E+000
5.240246166324600E+000  5.369680246632800E+000  5.502311348724600E+000  5.638218439038100E+000
5.777482434482400E+000  5.920186250614100E+000  6.066414851004300E+000  6.216255297824100E+000
6.369796803680300E+000  6.527130784731200E+000  6.688350915114100E+000  6.853553182717400E+000
7.022835946330500E+000  7.196299994204900E+000  7.374048604061700E+000  7.556187604582100E+000
7.742825438415300E+000  7.934073226744100E+000  8.130044835444700E+000  8.330856942880200E+000
8.536629109369301E+000  8.747483848370701E+000  8.963546699425500E+000  9.184946302901301E+000
9.411814476583000E+000  9.644286294154600E+000  9.882500165620201E+000  1.012659791971100E+001
1.037672488832800E+001  1.063302999307000E+001  1.089566583389800E+001  1.116478877999600E+001
1.144055906286200E+001  1.172314087171400E+001  1.201270245124600E+001  1.230941620179100E+001
1.261345878197600E+001  1.292501121389000E+001  1.324425899087300E+001  1.357139218794800E+001
1.390660557499000E+001  1.425009873269300E+001  1.460207617139000E+001  1.496274745282300E+001
1.533232731490800E+001  1.571103579958600E+001  1.609909838383600E+001  1.649674611391700E+001
1.690421574293100E+001  1.732174987178100E+001  1.774959709361400E+001  1.818801214182600E+001
1.863725604172900E+001  1.909759626596000E+001  1.956930689372900E+001  2.005266877400500E+001
2.054796969272200E+001  2.105550454413300E+001  2.157557550637300E+001  2.210849222138000E+001
2.265457197924800E+001  2.321413990713600E+001  2.378752916284200E+001  2.437508113316400E+001
2.497714563715300E+001  2.559408113439100E+001  2.622625493841000E+001  2.687404343538900E+001
2.753783230824300E+001  2.821801676625700E+001  2.891500178038300E+001  2.962920232435900E+001
3.036104362177100E+001  3.111096139922800E+001  3.187940214578900E+001  3.266682337879000E+001
3.347369391624600E+001  3.430049415597800E+001  3.514771636163000E+001  3.601586495576200E+001
3.690545682017000E+001  3.781702160362800E+001  3.875110203723800E+001  3.970825425755700E+001
4.068904813771900E+001  4.169406762672100E+001  4.272391109710100E+001  4.377919170119900E+001
4.486053773621900E+001  4.596859301830300E+001  4.710401726585500E+001  4.826748649232200E+001
4.945969340868200E+001  5.068134783587700E+001  5.193317712742300E+001  5.321592660247000E+001
5.453035998955100E+001  5.587725988129300E+001  5.725742820036100E+001  5.867168667691000E+001
6.012087733783000E+001  6.160586300807400E+001  6.312752782437400E+001  6.468677776163599E+001
6.628454117234800E+001  6.792176933930500E+001  6.959943704198599E+001  7.131854313692300E+001
7.308011115240500E+001  7.488518989786900E+001  7.673485408834701E+001
</PP_R>
<PP_RAB type="real" size="503" columns="4">
8.970546626299691E-006  9.192119127969265E-006  9.419164470430135E-006  9.651817832849729E-006
9.890217733321131E-006  1.013450611133420E-005  1.038482841228411E-005  1.064133367406750E-005
1.090417461581707E-005  1.117350772882775E-005  1.144949336972963E-005  1.173229585596203E-005
1.202208356360436E-005  1.231902902762523E-005  1.262330904460772E-005  1.293510477800948E-005
1.325460186602636E-005  1.358199053211728E-005  1.391746569826049E-005  1.426122710100746E-005
1.461347941040230E-005  1.497443235183924E-005  1.534430083092972E-005  1.572330506145375E-005
1.611167069647167E-005  1.650962896267458E-005  1.691741679805243E-005  1.733527699296440E-005
1.776345833469063E-005  1.820221575555760E-005  1.865181048471986E-005  1.911251020369242E-005
1.958458920572353E-005  2.006832855910503E-005  2.056401627451490E-005  2.107194747649543E-005
2.159242457916468E-005  2.212575746627003E-005  2.267226367568699E-005  2.323226858847656E-005
2.380610562261182E-005  2.439411643149028E-005  2.499665110734742E-005  2.561406838969982E-005
2.624673587892420E-005  2.689503025513466E-005  2.755933750243687E-005  2.824005313874579E-005
2.893758245127381E-005  2.965234073782126E-005  3.038475355404484E-005  3.113525696682849E-005
3.190429781391041E-005  3.269233396991253E-005  3.349983461897030E-005  3.432728053406004E-005
3.517516436325117E-005  3.604399092302210E-005  3.693427749882053E-005  3.784655415304114E-005
3.878136404062117E-005  3.973926373242671E-005  4.072082354661535E-005  4.172662788821674E-005
4.275727559705791E-005  4.381338030430414E-005  4.489557079782047E-005  4.600449139652693E-005
4.714080233402089E-005  4.830518015167143E-005  4.949831810141760E-005  5.072092655852167E-005
5.197373344451692E-005  5.325748466059831E-005  5.457294453171511E-005  5.592089626164832E-005
5.730214239930954E-005  5.871750531657378E-005  6.016782769789239E-005  6.165397304203044E-005
6.317682617616746E-005  6.473729378272016E-005  6.633630493915350E-005  6.797481167115039E-005
6.965378951942844E-005  7.137423812055730E-005  7.313718180213535E-005  7.494367019264769E-005
7.679477884640601E-005  7.869160988391364E-005  8.063529264804454E-005  8.262698437645283E-005
8.466787089055005E-005  8.675916730154753E-005  8.890211873389603E-005  9.109800106662253E-005
9.334812169296711E-005  9.565382029878319E-005  9.801646966016503E-005  1.004374764607706E-004
1.029182821293504E-004  1.054603636979473E-004  1.080652346812856E-004  1.107344459779128E-004
1.134695867935666E-004  1.162722855873685E-004  1.191442110413779E-004  1.220870730540989E-004
1.251026237585343E-004  1.281926585653709E-004  1.313590172319361E-004  1.346035849575649E-004
1.379282935060165E-004  1.413351223556146E-004  1.448260998777982E-004  1.484033045447796E-004
1.520688661670356E-004  1.558249671613626E-004  1.596738438502485E-004  1.636177877933476E-004
1.676591471518444E-004  1.718003280864939E-004  1.760437961902314E-004  1.803920779561311E-004
1.848477622816464E-004  1.894135020100025E-004  1.940920155096497E-004  1.988860882927396E-004
2.037985746735680E-004  2.088323994680058E-004  2.139905597348669E-004  2.192761265603163E-004
2.246922468863563E-004  2.302421453844491E-004  2.359291263754449E-004  2.417565757969194E-004
2.477279632190981E-004  2.538468439106112E-004  2.601168609552061E-004  2.665417474207897E-004
2.731253285820995E-004  2.798715241980675E-004  2.867843508457663E-004  2.938679243116473E-004
3.011264620421430E-004  3.085642856545865E-004  3.161858235102524E-004  3.239956133509601E-004
3.319983050007265E-004  3.401986631342509E-004  3.486015701136697E-004  3.572120288954860E-004
3.660351660091856E-004  3.750762346096144E-004  3.843406176044821E-004  3.938338308593125E-004
4.035615264815457E-004  4.135294961856240E-004  4.237436747414041E-004  4.342101435075285E-004
4.449351340521741E-004  4.559250318632494E-004  4.671863801502638E-004  4.787258837399882E-004
4.905504130683750E-004  5.026670082711493E-004  5.150828833754423E-004  5.278054305948289E-004
5.408422247305070E-004  5.542010276813479E-004  5.678897930650882E-004  5.819166709537871E-004
5.962900127263534E-004  6.110183760407062E-004  6.261105299289099E-004  6.415754600181405E-004
6.574223738806043E-004  6.736607065154364E-004  6.903001259663839E-004  7.073505390777402E-004
7.248220973929671E-004  7.427252031985728E-004  7.610705157175832E-004  7.798689574558060E-004
7.991317207049623E-004  8.188702742063680E-004  8.390963699792674E-004  8.598220503177443E-004
8.810596549606046E-004  9.028218284381329E-004  9.251215276005563E-004  9.479720293322875E-004
9.713869384567813E-004  9.953801958366862E-004  1.019966086673832E-003  1.045159249014691E-003
1.070974682465354E-003  1.097427757122235E-003  1.124534222723150E-003  1.152310218024411E-003
1.180772280409626E-003  1.209937355735736E-003  1.239822808422414E-003  1.270446431790450E-003
1.301826458655686E-003  1.333981572184459E-003  1.366930917017432E-003  1.400694110667759E-003
1.435291255201238E-003  1.470742949204722E-003  1.507070300050065E-003  1.544294936461307E-003
1.582439021391912E-003  1.621525265220295E-003  1.661576939271220E-003  1.702617889671223E-003
1.744672551546104E-003  1.787765963569306E-003  1.831923782869447E-003  1.877172300306328E-003
1.923538456123901E-003  1.971049855990170E-003  2.019734787433124E-003  2.069622236682711E-003
2.120741905928779E-003  2.173124231005215E-003  2.226800399511051E-003  2.281802369378981E-003
2.338162887902630E-003  2.395915511233825E-003  2.455094624361269E-003  2.515735461582947E-003
2.577874127484227E-003  2.641547618433033E-003  2.706793844608185E-003  2.773651652570031E-003
2.842160848388606E-003  2.912362221343731E-003  2.984297568210958E-003  3.058009718145788E-003
3.133542558183994E-003  3.210941059371220E-003  3.290251303537702E-003  3.371520510734972E-003
3.454797067350134E-003  3.540130554913593E-003  3.627571779619990E-003  3.717172802576739E-003
3.808986970800185E-003  3.903068948979126E-003  3.999474752018900E-003  4.098261778393827E-003
4.199488844319994E-003  4.303216218774689E-003  4.409505659378401E-003  4.518420449165199E-003
4.630025434259572E-003  4.744387062485836E-003  4.861573422929134E-003  4.981654286475362E-003
5.104701147351484E-003  5.230787265690894E-003  5.359987711153582E-003  5.492379407619160E-003
5.628041178987158E-003  5.767053796108256E-003  5.909500024872070E-003  6.055464675486380E-003
6.205034652970990E-003  6.358299008899394E-003  6.515348994419246E-003  6.676278114581385E-003
6.841182184011360E-003  7.010159383956598E-003  7.183310320740241E-003  7.360738085662627E-003
7.542548316378470E-003  7.728849259792939E-003  7.919751836509805E-003  8.115369706871696E-003
8.315819338631467E-003  8.521220076295461E-003  8.731694212180133E-003  8.947367059220812E-003
9.168367025583638E-003  9.394825691115527E-003  9.626877885686107E-003  9.864661769462619E-003
1.010831891516827E-002  1.035799439237286E-002  1.061383685386451E-002  1.087599862415508E-002
1.114463579017165E-002  1.141990829418884E-002  1.170198002905524E-002  1.199101893577295E-002
1.228719710348660E-002  1.259069087194286E-002  1.290168093647974E-002  1.322035245561084E-002
1.354689516126425E-002  1.388150347174769E-002  1.422437660749964E-002  1.457571870970496E-002
1.493573896183468E-002  1.530465171419202E-002  1.568267661153256E-002  1.607003872383745E-002
1.646696868031630E-002  1.687370280672003E-002  1.729048326604597E-002  1.771755820271727E-002
1.815518189032448E-002  1.860361488301537E-002  1.906312417062600E-002  1.953398333764036E-002
2.001647272608011E-002  2.051087960241421E-002  2.101749832859383E-002  2.153663053731016E-002
2.206858531158169E-002  2.261367936877771E-002  2.317223724918670E-002  2.374459150924151E-002
2.433108291951976E-002  2.493206066763212E-002  2.554788256612222E-002  2.617891526550606E-002
2.682553447256426E-002  2.748812517403518E-002  2.816708186583475E-002  2.886280878792003E-002
2.957572016498186E-002  3.030624045305702E-002  3.105480459224756E-002  3.182185826567683E-002
3.260785816483822E-002  3.341327226150997E-002  3.423858008637014E-002  3.508427301450215E-002
3.595085455796158E-002  3.683884066554345E-002  3.774876002998168E-002  3.868115440272224E-002
3.963657891647016E-002  4.061560241570553E-002  4.161880779537339E-002  4.264679234792094E-002
4.370016811891368E-002  4.477956227145012E-002  4.588561745955574E-002  4.701899221080735E-002
4.818036131841243E-002  4.937041624297765E-002  5.058986552417893E-002  5.183943520262813E-002
5.311986925213166E-002  5.443193002266074E-002  5.577639869421849E-002  5.715407574196771E-002
5.856578141279235E-002  6.001235621368815E-002  6.149466141216763E-002  6.301357954904815E-002
6.457001496390843E-002  6.616489433351826E-002  6.779916722355664E-002  6.947380665397671E-002
7.118980967832969E-002  7.294819797738501E-002  7.475001846742670E-002  7.659634392357288E-002
7.848827361848439E-002  8.042693397685993E-002  8.241347924608897E-002  8.444909218346719E-002
8.653498476039924E-002  8.867239888398139E-002  9.086260713641579E-002  9.310691353268546E-002
9.540665429694160E-002  9.776319865807659E-002  1.001779496649315E-001  1.026523450216555E-001
1.051878579436903E-001  1.077859980349003E-001  1.104483121863612E-001  1.131763854973635E-001
1.159718422191487E-001  1.188363467219623E-001  1.217716044859940E-001  1.247793631167990E-001
1.278614133857841E-001  1.310195902964125E-001  1.342557741767331E-001  1.375718917988985E-001
1.409699175263327E-001  1.444518744892328E-001  1.480198357891176E-001  1.516759257331086E-001
1.554223210987151E-001  1.592612524298533E-001  1.631950053648716E-001  1.672259219973835E-001
1.713564022707184E-001  1.755889054068060E-001  1.799259513703526E-001  1.843701223692022E-001
1.889240643917220E-001  1.935904887821961E-001  1.983721738551169E-001  2.032719665493387E-001
2.082927841231064E-001  2.134376158909466E-001  2.187095250034540E-001  2.241116502710391E-001
2.296472080327346E-001  2.353194940711432E-001  2.411318855747000E-001  2.470878431483946E-001
2.531909128741633E-001  2.594447284221624E-001  2.658530132141697E-001  2.724195826405771E-001
2.791483463318019E-001  2.860433104861804E-001  2.931085802552053E-001  3.003483621874899E-001
3.077669667335395E-001  3.153688108118383E-001  3.231584204388886E-001  3.311404334237399E-001
3.393196021292986E-001  3.477007963019105E-001  3.562890059705550E-001  3.650893444180197E-001
3.741070512251513E-001  3.833474953904070E-001  3.928161785265556E-001  4.025187381361676E-001
4.124609509681371E-001  4.226487364570404E-001  4.330881602475295E-001  4.437854378056370E-001
4.547469381194337E-001  4.659791874909909E-001  4.774888734220132E-001  4.892828485955588E-001
5.013681349558465E-001  5.137519278892747E-001  5.264416005081376E-001  5.394447080406786E-001
5.527689923292812E-001  5.664223864398286E-001  5.804130193848859E-001  5.947492209636878E-001
6.094395267214873E-001  6.244926830315158E-001  6.399176523023831E-001  6.557236183142586E-001
6.719199916866181E-001  6.885164154812874E-001  7.055227709436618E-001  7.229491833859834E-001
7.408060282156252E-001  7.591039371125330E-001  7.778538043592144E-001  7.970667933268871E-001
8.167543431220585E-001  8.369281753971910E-001  8.576003013294857E-001  8.787830287723175E-001
9.004889695830104E-001  9.227310471317058E-001  9.455225039958685E-001  9.688769098445474E-001
9.928081695177160E-001  1.017330531304812E+000  1.042458595428041E+000  1.068207322735103E+000
1.094592043606670E+000  1.121628467083740E+000  1.149332690220706E+000  1.177721207669167E+000
1.206810921498587E+000  1.236619151259615E+000  1.267163644295724E+000  1.298462586309820E+000
1.330534612191672E+000  1.363398817112809E+000  1.397074767895497E+000  1.431582514662517E+000
1.466942602774689E+000  1.503176085063215E+000  1.540304534364290E+000  1.578350056363087E+000
1.617335302755245E+000  1.657283484733300E+000  1.698218386806216E+000  1.740164380960329E+000
1.783146441170049E+000  1.827190158266939E+000  1.872321755176148E+000
</PP_RAB>
</PP_MESH>
<PP_LOCAL type="real" size="503" columns="4">
-2.460656225038800E+001 -2.460656257926200E+001 -2.460656289886400E+001 -2.460656320934800E+001
-2.460656351086200E+001 -2.460656380355000E+001 -2.460656408754600E+001 -2.460656436298000E+001
-2.460656462996800E+001 -2.460656488862600E+001 -2.460656513906000E+001 -2.460656538136800E+001
-2.460656561564200E+001 -2.460656584196600E+001 -2.460656606041600E+001 -2.460656627106000E+001
-2.460656647396200E+001 -2.460656666917200E+001 -2.460656685673800E+001 -2.460656703669600E+001
-2.460656720907400E+001 -2.460656737389600E+001 -2.460656753117000E+001 -2.460656768090200E+001
-2.460656782308400E+001 -2.460656795770200E+001 -2.460656808473200E+001 -2.460656820414000E+001
-2.460656831588000E+001 -2.460656841990000E+001 -2.460656851613200E+001 -2.460656860450000E+001
-2.460656868491600E+001 -2.460656875728200E+001 -2.460656882148600E+001 -2.460656887740400E+001
-2.460656892489800E+001 -2.460656896381800E+001 -2.460656899399800E+001 -2.460656901525800E+001
-2.460656902740600E+001 -2.460656903023000E+001 -2.460656902350200E+001 -2.460656900698000E+001
-2.460656898040000E+001 -2.460656894348400E+001 -2.460656889593000E+001 -2.460656883742000E+001
-2.460656876761000E+001 -2.460656868614000E+001 -2.460656859262000E+001 -2.460656848664400E+001
-2.460656836777400E+001 -2.460656823554800E+001 -2.460656808947600E+001 -2.460656792904200E+001
-2.460656775369800E+001 -2.460656756286200E+001 -2.460656735592400E+001 -2.460656713223400E+001
-2.460656689111000E+001 -2.460656663183000E+001 -2.460656635363400E+001 -2.460656605572000E+001
-2.460656573724000E+001 -2.460656539730200E+001 -2.460656503496600E+001 -2.460656464924400E+001
-2.460656423909200E+001 -2.460656380341200E+001 -2.460656334104800E+001 -2.460656285078400E+001
-2.460656233134000E+001 -2.460656178136800E+001 -2.460656119945200E+001 -2.460656058409800E+001
-2.460655993374200E+001 -2.460655924673600E+001 -2.460655852134200E+001 -2.460655775574000E+001
-2.460655694801200E+001 -2.460655609614600E+001 -2.460655519802400E+001 -2.460655425141800E+001
-2.460655325399200E+001 -2.460655220328600E+001 -2.460655109671800E+001 -2.460654993157200E+001
-2.460654870500000E+001 -2.460654741400000E+001 -2.460654605542800E+001 -2.460654462597400E+001
-2.460654312216600E+001 -2.460654154035000E+001 -2.460653987669600E+001 -2.460653812717200E+001
-2.460653628754800E+001 -2.460653435338000E+001 -2.460653231999800E+001 -2.460653018250200E+001
-2.460652793573800E+001 -2.460652557430000E+001 -2.460652309250600E+001 -2.460652048438600E+001
-2.460651774367600E+001 -2.460651486379600E+001 -2.460651183782800E+001 -2.460650865851800E+001
-2.460650531823800E+001 -2.460650180898400E+001 -2.460649812234400E+001 -2.460649424949000E+001
-2.460649018114600E+001 -2.460648590757600E+001 -2.460648141854800E+001 -2.460647670332400E+001
-2.460647175062200E+001 -2.460646654859800E+001 -2.460646108481200E+001 -2.460645534620000E+001
-2.460644931904400E+001 -2.460644298893600E+001 -2.460643634075000E+001 -2.460642935859400E+001
-2.460642202578800E+001 -2.460641432480600E+001 -2.460640623725000E+001 -2.460639774379800E+001
-2.460638882415800E+001 -2.460637945701800E+001 -2.460636962000000E+001 -2.460635928960400E+001
-2.460634844114800E+001 -2.460633704871200E+001 -2.460632508508000E+001 -2.460631252166200E+001
-2.460629932844200E+001 -2.460628547389200E+001 -2.460627092489800E+001 -2.460625564669400E+001
-2.460623960275600E+001 -2.460622275473400E+001 -2.460620506234600E+001 -2.460618648329000E+001
-2.460616697313400E+001 -2.460614648521800E+001 -2.460612497052800E+001 -2.460610237759400E+001
-2.460607865235000E+001 -2.460605373801200E+001 -2.460602757493800E+001 -2.460600010048000E+001
-2.460597124884200E+001 -2.460594095090400E+001 -2.460590913406800E+001 -2.460587572207400E+001
-2.460584063481600E+001 -2.460580378814800E+001 -2.460576509367000E+001 -2.460572445852400E+001
-2.460568178515600E+001 -2.460563697108400E+001 -2.460558990863600E+001 -2.460554048469800E+001
-2.460548858042400E+001 -2.460543407094600E+001 -2.460537682506800E+001 -2.460531670493400E+001
-2.460525356569000E+001 -2.460518725512200E+001 -2.460511761328000E+001 -2.460504447206600E+001