<UPF version="2.0.1">
  <PP_INFO>
    Generated using FHI98PP, converted with fhi2upf.x v.5.0.1
    Author: Abinit web site
    Generation date: 10-Jul-2012, PG
    Pseudopotential type: SL
    Element:  F
    Functional: SLA-PW

    Suggested minimum cutoff for wavefunctions:   0. Ry
    Suggested minimum cutoff for charge density:   0. Ry
    The Pseudo was generated with a Scalar-Relativistic Calculation
    L component and cutoff radius for Local Potential:  2   0.0000

    Valence configuration: 
    nl pn  l   occ       Rcut    Rcut US       E pseu
    2s  2  0  2.00      0.000      0.000     0.000000
    2p  2  1  5.00      0.000      0.000     0.000000
    3d  3  2  0.00      0.000      0.000     0.000000
    4f  4  3  0.00      0.000      0.000     0.000000

    Generation configuration: not available.
    Comment:
    fluorine, fhi98PP : Trouiller-Martins-type, LDA Ceperley/Alder Perdew/Wang (1992
  </PP_INFO>
  <!--                               -->
  <!-- END OF HUMAN READABLE SECTION -->
  <!--                               -->
  <PP_HEADER generated="Generated using FHI98PP, converted with fhi2upf.x v.5.0.1"
             author="Abinit web site"
             date="10-Jul-2012, PG"
             comment="fluorine, fhi98PP : Trouiller-Martins-type, LDA Ceperley/Alder Perdew/Wang (1992"
             element=" F"
             pseudo_type="SL"
             relativistic="scalar"
             is_ultrasoft="F"
             is_paw="F"
             is_coulomb="F"
             has_so="F"
             has_wfc="F"
             has_gipaw="F"
             paw_as_gipaw="F"
             core_correction="F"
             functional="SLA-PW"
             z_valence="7.000000000000000E+000"
             total_psenergy="0.000000000000000E+000"
             wfc_cutoff="0.000000000000000E+000"
             rho_cutoff="0.000000000000000E+000"
             l_max="3"
             l_max_rho="0"
             l_local="2"
             mesh_size="477"
             number_of_wfc="4"
             number_of_proj="3"/>
  <PP_MESH dx="2.439988682353512E-002" mesh="477" xmin="-5.075173815233833E+000" rmax="7.685709092680300E+001"
zmesh="9.000000000000000E+000">
    <PP_R type="real" size="477" columns="4">
 6.944444444444400E-004  7.115972222222200E-004  7.291736736111100E-004  7.471842633493100E-004 
 7.656397146540300E-004  7.845510156059900E-004  8.039294256914600E-004  8.237864825060300E-004 
 8.441340086239300E-004  8.649841186369400E-004  8.863492263672800E-004  9.082420522585500E-004 
 9.306756309493400E-004  9.536633190337800E-004  9.772188030139201E-004  1.001356107448400E-003 
 1.026089603302300E-003  1.051434016503900E-003  1.077404436711600E-003  1.104016326298300E-003 
 1.131285529557900E-003  1.159228282138000E-003  1.187861220706800E-003  1.217201392858200E-003 
 1.247266267261800E-003  1.278073744063200E-003  1.309642165541600E-003  1.341990327030400E-003 
 1.375137488108100E-003  1.409103384064400E-003  1.443908237650800E-003  1.479572771120700E-003 
 1.516118218567400E-003  1.553566338566000E-003  1.591939427128600E-003  1.631260330978700E-003 
 1.671552461153900E-003  1.712839806944400E-003  1.755146950175900E-003  1.798499079845200E-003 
 1.842922007117400E-003  1.888442180693200E-003  1.935086702556300E-003  1.982883344109500E-003 
 2.031860562709000E-003  2.082047518607900E-003  2.133474092317500E-003  2.186170902397700E-003 
 2.240169323687000E-003  2.295501505982000E-003  2.352200393179800E-003  2.410299742891300E-003 
 2.469834146540700E-003  2.530839049960300E-003  2.593350774494300E-003  2.657406538624300E-003 
 2.723044480128300E-003  2.790303678787500E-003  2.859224179653600E-003  2.929847016891000E-003 
 3.002214238208200E-003  3.076368929892000E-003  3.152355242460300E-003  3.230218416949100E-003 
 3.310004811847700E-003  3.391761930700300E-003  3.475538450388600E-003  3.561384250113200E-003 
 3.649350441091000E-003  3.739489396986000E-003  3.831854785091500E-003  3.926501598283300E-003 
 4.023486187760900E-003  4.122866296598600E-003  4.224701094124600E-003  4.329051211149400E-003 
 4.435978776064800E-003  4.545547451833600E-003  4.657822473893900E-003  4.772870688999100E-003 
 4.890760595017400E-003  5.011562381714300E-003  5.135347972542700E-003  5.262191067464500E-003 
 5.392167186830800E-003  5.525353716345600E-003  5.661829953139300E-003  5.801677152981800E-003 
 5.944978578660500E-003  6.091819549553400E-003  6.242287492427400E-003  6.396471993490300E-003 
 6.554464851729500E-003  6.716360133567300E-003  6.882254228866400E-003  7.052245908319400E-003 
 7.226436382254800E-003  7.404929360896500E-003  7.587831116110700E-003  7.775250544678600E-003 
 7.967299233132200E-003  8.164091524190500E-003  8.365744584838099E-003  8.572378476083600E-003 
 8.784116224442799E-003  9.001083895186600E-003  9.223410667397699E-003  9.451228910882400E-003 
 9.684674264981199E-003  9.923885719326200E-003  1.016900569659400E-002  1.042018013729900E-002 
 1.067755858669100E-002  1.094129428378200E-002  1.121154425259100E-002  1.148846939563000E-002 
 1.177223458970200E-002  1.206300878406800E-002  1.236096510103500E-002  1.266628093903000E-002 
 1.297913807822400E-002  1.329972278875600E-002  1.362822594163900E-002  1.396484312239700E-002 
 1.430977474752000E-002  1.466322618378400E-002  1.502540787052400E-002  1.539653544492500E-002 
 1.577682987041500E-002  1.616651756821400E-002  1.656583055214900E-002  1.697500656678700E-002 
 1.739428922898700E-002  1.782392817294300E-002  1.826417919881500E-002  1.871530442502500E-002 
 1.917757244432400E-002  1.965125848369800E-002  2.013664456824600E-002  2.063401968908100E-002 
 2.114367997540200E-002  2.166592887079400E-002  2.220107731390300E-002  2.274944392355600E-002 
 2.331135518846800E-002  2.388714566162300E-002  2.447715815946500E-002  2.508174396600400E-002 
 2.570126304196400E-002  2.633608423910100E-002  2.698658551980600E-002  2.765315418214600E-002 
 2.833618709044500E-002  2.903609091157900E-002  2.975328235709500E-002  3.048818843131500E-002 
 3.124124668556800E-002  3.201290547870200E-002  3.280362424402600E-002  3.361387376285300E-002 
 3.444413644479600E-002  3.529490661498200E-002  3.616669080837200E-002  3.706000807133900E-002 
 3.797539027070100E-002  3.891338241038700E-002  3.987454295592400E-002  4.085944416693500E-002 
 4.186867243785900E-002  4.290282864707400E-002  4.396252851465700E-002  4.504840296896900E-002 
 4.616109852230200E-002  4.730127765580300E-002  4.846961921390100E-002  4.966681880848500E-002 
 5.089358923305400E-002  5.215066088711100E-002  5.343878221102200E-002  5.475872013163400E-002 
 5.611126051888600E-002  5.749720865370200E-002  5.891738970744900E-002  6.037264923322300E-002 
 6.186385366928300E-002  6.339189085491501E-002  6.495767055903100E-002  6.656212502183900E-002 
 6.820620950987900E-002  6.989090288477200E-002  7.161720818602600E-002  7.338615322822099E-002 
 7.519879121295800E-002  7.705620135591799E-002  7.895948952941000E-002  8.090978892078600E-002 
 8.290826070712901E-002  8.495609474659500E-002  8.705451028683600E-002  8.920475669092100E-002 
 9.140811418118699E-002  9.366589460146200E-002  9.597944219811801E-002  9.835013442041200E-002 
 1.007793827406000E-001  1.032686334942900E-001  1.058193687416000E-001  1.084331071495200E-001 
 1.111114048961100E-001  1.138558565970400E-001  1.166680962549900E-001  1.195497982324900E-001 
 1.225026782488300E-001  1.255284944015800E-001  1.286290482132900E-001  1.318061857041600E-001 
 1.350617984910600E-001  1.383978249137800E-001  1.418162511891600E-001  1.453191125935300E-001 
 1.489084946745900E-001  1.525865344930500E-001  1.563554218950300E-001  1.602174008158400E-001 
 1.641747706159900E-001  1.682298874502000E-001  1.723851656702200E-001  1.766430792622800E-001 
 1.810061633200500E-001  1.854770155540600E-001  1.900582978382400E-001  1.947527377948500E-001 
 1.995631304183800E-001  2.044923397397200E-001  2.095433005312900E-001  2.147190200544100E-001 
 2.200225798497500E-001  2.254571375720400E-001  2.310259288700700E-001  2.367322693131600E-001 
 2.425795563652000E-001  2.485712714074200E-001  2.547109818111800E-001  2.610023430619200E-001 
 2.674491009355500E-001  2.740550937286600E-001  2.808242545437500E-001  2.877606136309800E-001 
 2.948683007876700E-001  3.021515478171200E-001  3.096146910482100E-001  3.172621739171000E-001 
 3.250985496128500E-001  3.331284837882900E-001  3.413567573378600E-001  3.497882692441000E-001 
 3.584280394944300E-001  3.672812120699500E-001  3.763530580080700E-001  3.856489785408700E-001 
 3.951745083108300E-001  4.049353186661100E-001  4.149372210371600E-001  4.251861703967800E-001 
 4.356882688055800E-001  4.464497690450800E-001  4.574770783404900E-001  4.687767621755000E-001 
 4.803555482012400E-001  4.922203302418100E-001  5.043781723987800E-001  5.168363132570299E-001 
 5.296021701944800E-001  5.426833437982800E-001  5.560876223901000E-001  5.698229866631300E-001 
 5.838976144337100E-001  5.983198855102300E-001  6.130983866823300E-001  6.282419168333800E-001 
 6.437594921791699E-001  6.596603516359900E-001  6.759539623214000E-001  6.926500251907400E-001 
 7.097584808129500E-001  7.272895152890300E-001  7.452535663166699E-001  7.636613294046900E-001 
 7.825237642409900E-001  8.018521012177400E-001  8.216578481178201E-001  8.419527969663300E-001 
 8.627490310514000E-001  8.840589321183699E-001  9.058951877416900E-001  9.282707988789100E-001 
 9.511990876112200E-001  9.746937050752200E-001  9.987686395905701E-001  1.023438224988500E+000 
 1.048717149145700E+000  1.074620462729600E+000  1.101163588159000E+000  1.128362328786500E+000 
 1.156232878307500E+000  1.184791830401700E+000  1.214056188612700E+000  1.244043376471400E+000 
 1.274771247870200E+000  1.306258097692600E+000  1.338522672705600E+000  1.371584182721500E+000 
 1.405462312034700E+000  1.440177231142000E+000  1.475749608751200E+000  1.512200624087300E+000 
 1.549551979502300E+000  1.587825913396000E+000  1.627045213456900E+000  1.667233230229200E+000 
 1.708413891015900E+000  1.750611714124000E+000  1.793851823462900E+000  1.838159963502400E+000 
 1.883562514600900E+000  1.930086508711500E+000  1.977759645476700E+000  2.026610308720000E+000 
 2.076667583345400E+000  2.127961272654000E+000  2.180521916088600E+000  2.234380807415900E+000 
 2.289570013359100E+000  2.346122392689100E+000  2.404071615788500E+000  2.463452184698500E+000 
 2.524299453660500E+000  2.586649650166000E+000  2.650539896525100E+000  2.716008231969200E+000 
 2.783093635298900E+000  2.851836048090700E+000  2.922276398478600E+000  2.994456625521000E+000 
 3.068419704171400E+000  3.144209670864400E+000  3.221871649734800E+000  3.301451879483200E+000 
 3.382997740906400E+000  3.466557785106800E+000  3.552181762399000E+000  3.639920651930200E+000 
 3.729826692032900E+000  3.821953411326100E+000  3.916355660585900E+000  4.013089645402300E+000 
 4.112212959643800E+000  4.213784619747000E+000  4.317865099854700E+000  4.424516367821100E+000 
 4.533801922106300E+000  4.645786829582400E+000  4.760537764273000E+000  4.878123047050600E+000 
 4.998612686312700E+000  5.122078419664700E+000  5.248593756630400E+000  5.378234022419100E+000 
 5.511076402772900E+000  5.647199989921400E+000  5.786685829672400E+000  5.929616969665300E+000 
 6.076078508816100E+000  6.226157647983800E+000  6.379943741889000E+000  6.537528352313700E+000 
 6.699005302615800E+000  6.864470733590500E+000  7.034023160710100E+000  7.207763532779700E+000 
 7.385795292039300E+000  7.568224435752700E+000  7.755159579315800E+000  7.946712020924900E+000 
 8.142995807841700E+000  8.344127804295400E+000  8.550227761061500E+000  8.761418386759800E+000 
 8.977825420912700E+000  9.199577708809301E+000  9.426807278216900E+000  9.659649417988801E+000 
 9.898242758613099E+000  1.014272935475100E+001  1.039325476981300E+001  1.064996816262800E+001 
 1.091302237624500E+001  1.118257402893800E+001  1.145878360745300E+001  1.174181556255700E+001 
 1.203183840695200E+001  1.232902481560300E+001  1.263355172854900E+001  1.294560045624400E+001 
 1.326535678751300E+001  1.359301110016500E+001  1.392875847433900E+001  1.427279880865500E+001 
 1.462533693922900E+001  1.498658276162800E+001  1.535675135584000E+001  1.573606311432900E+001 
 1.612474387325300E+001  1.652302504692300E+001  1.693114376558100E+001  1.734934301659100E+001 
 1.777787178910100E+001  1.821698522229200E+001  1.866694475728300E+001  1.912801829278700E+001 
 1.960048034461900E+001  2.008461220913100E+001  2.058070213069700E+001  2.108904547332500E+001 
 2.160994489651600E+001  2.214371053546000E+001  2.269066018568600E+001  2.325111949227300E+001 
 2.382542214373200E+001  2.441391007068200E+001  2.501693364942800E+001  2.563485191056900E+001 
 2.626803275276000E+001  2.691685316175300E+001  2.758169943484800E+001  2.826296741088900E+001 
 2.896106270593800E+001  2.967640095477400E+001  3.040940805835700E+001  3.116052043739900E+001 
 3.193018529220200E+001  3.271886086892000E+001  3.352701673238200E+001  3.435513404567200E+001 
 3.520370585660000E+001  3.607323739125800E+001  3.696424635482200E+001  3.787726323978600E+001 
 3.881283164180900E+001  3.977150858336200E+001  4.075386484537100E+001  4.176048530705100E+001 
 4.279196929413600E+001  4.384893093570100E+001  4.493199952981300E+001  4.604181991819900E+001 
 4.717905287017800E+001  4.834437547607200E+001  4.953848155033100E+001  5.076208204462400E+001 
 5.201590547112600E+001  5.330069833626300E+001  5.461722558516900E+001  5.596627105712200E+001 
 5.734863795223300E+001  5.876514930965300E+001  6.021664849760200E+001  6.170399971549300E+001 
 6.322808850846500E+001  6.478982229462400E+001  6.639013090530200E+001  6.802996713866300E+001 
 6.971030732698800E+001  7.143215191796401E+001  7.319652607033800E+001  7.500448026427500E+001 
 7.685709092680300E+001
    </PP_R>
    <PP_RAB type="real" size="477" columns="4">
 1.694436584967706E-005  1.736289168616414E-005  1.779175511081242E-005  1.823121146204962E-005 
 1.868152238516206E-005  1.914295598807569E-005  1.961578700098121E-005  2.010029693990523E-005 
 2.059677427432091E-005  2.110551459889661E-005  2.162682080948954E-005  2.216100328348389E-005 
 2.270838006458604E-005  2.326927705218110E-005  2.384402819537011E-005  2.443297569179663E-005 
 2.503647019138217E-005  2.565487100511012E-005  2.628854631893765E-005  2.693787341301354E-005 
 2.760323888631576E-005  2.828503888680824E-005  2.898367934731219E-005  2.969957622718939E-005 
 3.043315576000103E-005  3.118485470727387E-005  3.195512061854448E-005  3.274441209782065E-005 
 3.355319907663801E-005  3.438196309383170E-005  3.523119758224957E-005  3.610140816252931E-005 
 3.699311294414424E-005  3.790684283386424E-005  3.884314185186118E-005  3.980256745560273E-005 
 4.078569087175675E-005  4.179309743628911E-005  4.282538694296480E-005  4.388317400045493E-005 
 4.496708839826675E-005  4.607777548170394E-005  4.721589653610149E-005  4.838212918054464E-005 
 4.957716777130399E-005  5.080172381525490E-005  5.205652639349131E-005  5.334232259540952E-005 
 5.465987796351802E-005  5.600997694921523E-005  5.739342337986194E-005  5.881104093734352E-005 
 6.026367364849554E-005  6.175218638761446E-005  6.327746539138808E-005  6.484041878655513E-005 
 6.644197713058255E-005  6.808309396570869E-005  6.976474638666290E-005  7.148793562241239E-005 
 7.325368763228580E-005  7.506305371680465E-005  7.691711114360893E-005  7.881696378885681E-005 
 8.076374279444054E-005  8.275860724146230E-005  8.480274484032647E-005  8.689737263788258E-005 
 8.904373774203838E-005  9.124311806426799E-005  9.349682308045409E-005  9.580619461054229E-005 
 9.817260761742275E-005  1.005974710255732E-004  1.030822285599052E-004  1.056283596053330E-004 
 1.082373800875850E-004  1.109108433757483E-004  1.136503412071295E-004  1.164575046349461E-004 
 1.193340049994298E-004  1.222815549229150E-004  1.253019093295124E-004  1.283968664899513E-004 
 1.315682690922513E-004  1.348180053388318E-004  1.381480100707001E-004  1.415602659194454E-004 
 1.450568044876569E-004  1.486397075585017E-004  1.523111083351974E-004  1.560731927110754E-004 
 1.599282005710387E-004  1.638784271251453E-004  1.679262242751361E-004  1.720740020147320E-004 
 1.763242298644937E-004  1.806794383421469E-004  1.851422204691992E-004  1.897152333147877E-004 
 1.944011995776638E-004  1.992029092072305E-004  2.041232210646514E-004  2.091650646249483E-004 
 2.143314417211829E-004  2.196254283316977E-004  2.250501764114904E-004  2.306089157688537E-004 
 2.363049559883445E-004  2.421416884012557E-004  2.481225881047775E-004  2.542512160309443E-004 
 2.605312210669260E-004  2.669663422272726E-004  2.735604108802761E-004  2.803173530290189E-004 
 2.872411916488342E-004  2.943360490825692E-004  3.016061494949214E-004  3.090558213874322E-004 
 3.166895001757007E-004  3.245117308300373E-004  3.325271705815570E-004  3.407405916949096E-004 
 3.491568843097688E-004  3.577810593522264E-004  3.666182515182394E-004  3.756737223307170E-004 
 3.849528632722943E-004  3.944611989951138E-004  4.042043906102959E-004  4.141882390583683E-004 
 4.244186885631188E-004  4.349018301706283E-004  4.456439053758504E-004  4.566513098386161E-004 
 4.679305971916514E-004  4.794884829422656E-004  4.913318484709556E-004  5.034677451281718E-004 
 5.159033984328547E-004  5.286462123741357E-004  5.417037738197863E-004  5.550838570331252E-004 
 5.687944283018474E-004  5.828436506808992E-004  5.972398888527152E-004  6.119917141073825E-004 
 6.271079094458276E-004  6.425974748091515E-004  6.584696324369181E-004  6.747338323581293E-004 
 6.913997580173750E-004  7.084773320404043E-004  7.259767221418022E-004  7.439083471786988E-004 
 7.622828833540009E-004  7.811112705728562E-004  8.004047189560071E-004  8.201747155142099E-004 
 8.404330309874237E-004  8.611917268528018E-004  8.824631625060648E-004  9.042600026199697E-004 
 9.265952246846812E-004  9.494821267343851E-004  9.729343352647352E-004  9.969658133457662E-004 
 1.021590868935424E-003  1.046824163398126E-003  1.072680720234066E-003  1.099175934023847E-003 
 1.126325579594223E-003  1.154145821410204E-003  1.182653223199028E-003  1.211864757812060E-003 
 1.241797817330003E-003  1.272470223418068E-003  1.303900237936479E-003  1.336106573813504E-003 
 1.369108406186713E-003  1.402925383819513E-003  1.437577640799869E-003  1.473085808527626E-003 
 1.509471027998243E-003  1.546754962389817E-003  1.584959809960836E-003  1.624108317266867E-003 
 1.664223792703373E-003  1.705330120383121E-003  1.747451774356587E-003  1.790613833183199E-003 
 1.834841994862823E-003  1.880162592135933E-003  1.926602608161710E-003  1.974189692583294E-003 
 2.022952177990092E-003  2.072919096786445E-003  2.124120198477072E-003  2.176585967379460E-003 
 2.230347640773738E-003  2.285437227500842E-003  2.341887527020110E-003  2.399732148937519E-003 
 2.459005533016369E-003  2.519742969681804E-003  2.581980621032970E-003  2.645755542372545E-003 
 2.711105704269070E-003  2.778070015164421E-003  2.846688344539058E-003  2.917001546649215E-003 
 2.989051484851389E-003  3.062881056527314E-003  3.138534218623318E-003  3.216056013823357E-003 
 3.295492597364971E-003  3.376891264519661E-003  3.460300478753532E-003  3.545769900578690E-003 
 3.633350417122978E-003  3.723094172425858E-003  3.815054598484817E-003  3.909286447067459E-003 
 4.005845822309995E-003  4.104790214120932E-003  4.206178532409720E-003  4.310071142160376E-003 
 4.416529899371534E-003  4.525618187886127E-003  4.637400957126786E-003  4.751944760767951E-003 
 4.869317796358851E-003  4.989589945929062E-003  5.112832817593483E-003  5.239119788187972E-003 
 5.368526046956119E-003  5.501128640315964E-003  5.637006517731784E-003  5.776240578719740E-003 
 5.918913721014239E-003  6.065110889923279E-003  6.214919128904305E-003  6.368427631388335E-003 
 6.525727793883641E-003  6.686913270392614E-003  6.852080028171118E-003  7.021326404866930E-003 
 7.194753167067260E-003  7.372463570293688E-003  7.554563420480116E-003  7.741161136965956E-003 
 7.932367817048957E-003  8.128297302130131E-003  8.329066245492725E-003  8.534794181756272E-003 
 8.745603598045668E-003  8.961620006917581E-003  9.182972021088257E-003  9.409791430009152E-003 
 9.642213278330392E-003  9.880375946305213E-003  1.012442123217888E-002  1.037449443661375E-002 
 1.063074444919810E-002  1.089332383709335E-002  1.116238893586947E-002  1.143809994258544E-002 
 1.172062101116743E-002  1.201012035014325E-002  1.230677032279172E-002  1.261074754976468E-002 
 1.292223301424390E-002  1.324141216969563E-002  1.356847505028718E-002  1.390361638402914E-002 
 1.424703570871467E-002  1.459893749072010E-002  1.495953124674082E-002  1.532903166853524E-002 
 1.570765875074819E-002  1.609563792189154E-002  1.649320017856229E-002  1.690058222297281E-002 
 1.731802660388020E-002  1.774578186099605E-002  1.818410267296267E-002  1.863325000898481E-002 
 1.909349128420684E-002  1.956510051892668E-002  2.004835850174422E-002  2.054355295673730E-002 
 2.105097871476875E-002  2.157093788902354E-002  2.210374005488233E-002  2.264970243423793E-002 
 2.320915008436364E-002  2.378241609144749E-002  2.436984176890605E-002  2.497177686059907E-002 
 2.558857974905548E-002  2.622061766885718E-002  2.686826692527744E-002  2.753191311833112E-002 
 2.821195137235325E-002  2.890878657125050E-002  2.962283359956229E-002  3.035451758947066E-002 
 3.110427417392952E-002  3.187254974602572E-002  3.265980172475239E-002  3.346649882735551E-002 
 3.429312134839069E-002  3.514016144569698E-002  3.600812343340552E-002  3.689752408220930E-002 
 3.780889292704093E-002  3.874277258233868E-002  3.969971906512290E-002  4.068030212602935E-002 
 4.168510558854322E-002  4.271472769658042E-002  4.376978147068687E-002  4.485089507301201E-002 
 4.595871218131518E-002  4.709389237219264E-002  4.825711151378642E-002  4.944906216817757E-002 
 5.067045400373195E-002  5.192201421762336E-002  5.320448796879978E-002  5.451863882162699E-002 
 5.586524920052183E-002  5.724512085577547E-002  5.865907534091260E-002  6.010795450183373E-002 
 6.159262097802774E-002  6.311395871618712E-002  6.467287349647693E-002  6.627029347183820E-002 
 6.790716972059410E-002  6.958447681269074E-002  7.130321338996566E-002  7.306440276069728E-002 
 7.486909350888728E-002  7.671836011855597E-002  7.861330361348551E-002  8.055505221273740E-002 
 8.254476200239115E-002  8.458361762385050E-002  8.667283297916112E-002  8.881365195374506E-002 
 9.100734915700315E-002  9.325523068118081E-002  9.555863487900709E-002  9.791893316051682E-002 
 1.003375308095831E-001  1.028158678205798E-001  1.053554197557468E-001  1.079576986237135E-001 
 1.106242537797197E-001  1.133566728480806E-001  1.161565826674261E-001  1.190256502593129E-001 
 1.219655838207167E-001  1.249781337410903E-001  1.280650936444948E-001  1.312283014575121E-001 
 1.344696405035138E-001  1.377910406239508E-001  1.411944793273610E-001  1.446819829667466E-001 
 1.482556279460269E-001  1.519175419562923E-001  1.556699052426128E-001  1.595149519021063E-001 
 1.634549712140872E-001  1.674923090030773E-001  1.716293690354512E-001  1.758686144506284E-001 
 1.802125692275575E-001  1.846638196874788E-001  1.892250160337597E-001  1.938988739297936E-001 
 1.986881761158584E-001  2.035957740659204E-001  2.086245896853487E-001  2.137776170505788E-001 
 2.190579241917264E-001  2.244686549192635E-001  2.300130306957695E-001  2.356943525539537E-001 
 2.415160030620357E-001  2.474814483376718E-001  2.535942401116038E-001  2.598580178423754E-001 
 2.662765108830843E-001  2.728535407018903E-001  2.795930231572327E-001  2.864989708292142E-001 
 2.935754954086919E-001  3.008268101452692E-001  3.082572323558721E-001  3.158711859950582E-001 
 3.236732042891306E-001  3.316679324350826E-001  3.398601303662273E-001  3.482546755862689E-001 
 3.568565660732552E-001  3.656709232552656E-001  3.747029950596655E-001  3.839581590376332E-001 
 3.934419255658645E-001  4.031599411273573E-001  4.131179916731787E-001  4.233220060675098E-001 
 4.337780596173822E-001  4.444923776899365E-001  4.554713394188875E-001  4.667214815025123E-001 
 4.782495020956283E-001  4.900622647973881E-001  5.021668027378949E-001  5.145703227655157E-001 
 5.272802097378209E-001  5.403040309183462E-001  5.536495404820329E-001  5.673246841319526E-001 
 5.813376038300083E-001  5.956966426446051E-001  6.104103497179306E-001  6.254874853559667E-001 
 6.409370262442577E-001  6.567681707924867E-001  6.729903446110539E-001  6.896132061229531E-001 
 7.066466523141910E-001  7.241008246263352E-001  7.419861149946076E-001  7.603131720349887E-001 
 7.790929073842345E-001  7.983365021966399E-001  8.180554138008891E-001  8.382613825217752E-001 
 8.589664386700606E-001  8.801829097052104E-001  9.019234275749275E-001  9.242009362360255E-001 
 9.470286993610624E-001  9.704203082352885E-001  9.943896898486990E-001  1.018951115187946E+000 
 1.044119207733109E+000  1.069908952164112E+000  1.096335703282570E+000  1.123415195153641E+000 
 1.151163550473923E+000  1.179597290170644E+000  1.208733343237859E+000  1.238589056815830E+000 
 1.269182206519176E+000  1.300531007020204E+000  1.332654122893610E+000  1.365570679729066E+000 
 1.399300275518376E+000  1.433862992323676E+000  1.469279408234085E+000  1.505570609617472E+000 
 1.542758203675008E+000  1.580864331305778E+000  1.619911680289050E+000  1.659923498792190E+000 
 1.700923609212358E+000  1.742936422359889E+000  1.785986951992185E+000  1.830100829706384E+000 
 1.875304320200141E+000
    </PP_RAB>
  </PP_MESH>
  <PP_LOCAL type="real" size="477" columns="4">
-2.833152025938200E+001 -2.833152098133800E+001 -2.833152165761800E+001 -2.833152228791000E+001 
-2.833152287183800E+001 -2.833152340896000E+001 -2.833152389877000E+001 -2.833152434068600E+001 
-2.833152473406200E+001 -2.833152507817000E+001 -2.833152537220800E+001 -2.833152561529600E+001 
-2.833152580646800E+001 -2.833152594467000E+001 -2.833152602876400E+001 -2.833152605751000E+001 
-2.833152602958000E+001 -2.833152594354000E+001 -2.833152579784800E+001 -2.833152559085800E+001 
-2.833152532080600E+001 -2.833152498580800E+001 -2.833152458385800E+001 -2.833152411281400E+001 
-2.833152357040600E+001 -2.833152295421600E+001 -2.833152226167800E+001 -2.833152149007200E+001 
-2.833152063651600E+001 -2.833151969795600E+001 -2.833151867116200E+001 -2.833151755271800E+001 
-2.833151633901000E+001 -2.833151502622400E+001 -2.833151361033000E+001 -2.833151208707400E+001 
-2.833151045197000E+001 -2.833150870028400E+001 -2.833150682702400E+001 -2.833150482693200E+001 
-2.833150269446400E+001 -2.833150042378000E+001 -2.833149800873000E+001 -2.833149544283800E+001 
-2.833149271928600E+001 -2.833148983089600E+001 -2.833148677011800E+001 -2.833148352900600E+001 
-2.833148009919800E+001 -2.833147647190000E+001 -2.833147263786600E+001 -2.833146858737000E+001 
-2.833146431018000E+001 -2.833145979554800E+001 -2.833145503216800E+001 -2.833145000815600E+001 
-2.833144471102000E+001 -2.833143912763600E+001 -2.833143324420200E+001 -2.833142704622400E+001 
-2.833142051846200E+001 -2.833141364490600E+001 -2.833140640873800E+001 -2.833139879228400E+001 
-2.833139077697400E+001 -2.833138234330400E+001 -2.833137347078200E+001 -2.833136413788400E+001 
-2.833135432199400E+001 -2.833134399936600E+001 -2.833133314504800E+001 -2.833132173283800E+001 
-2.833130973521600E+001 -2.833129712327400E+001 -2.833128386665400E+001 -2.833126993347400E+001 
-2.833125529024800E+001 -2.833123990181200E+001 -2.833122373123600E+001 -2.833120673973600E+001 
-2.833118888658800E+001 -2.833117012902400E+001 -2.833115042213400E+001 -2.833112971875800E+001 
-2.833110796937400E+001 -2.833108512198200E+001 -2.833106112198000E+001 -2.833103591203400E+001 
-2.833100943193800E+001 -2.833098161848000E+001 -2.833095240528800E+001 -2.833092172266800E+001 
-2.833088949744600E+001 -2.833085565279000E+001 -2.833082010803600E+001 -2.833078277848200E+001 
-2.833074357520600E+001 -2.833070240484200E+001 -2.833065916936600E+001 -2.833061376586400E+001 
-2.833056608628600E+001 -2.833051601719400E+001 -2.833046343949600E+001 -2.833040822816000E+001 
-2.833035025192800E+001 -2.833028937299600E+001 -2.833022544670200E+001 -2.833015832117400E+001 
-2.833008783698600E+001 -2.833001382677400E+001 -2.832993611484400E+001 -2.832985451677000E+001 
-2.832976883895200E+001 -2.832967887816400E+001 -2.832958442108600E+001 -2.832948524380200E+001 
-2.832938111127400E+001 -2.832927177680400E+001 -2.832915698144600E+001 -2.832903645342000E+001 
-2.832890990747000E+001 -2.832877704420600E+001 -2.832863754941000E+001 -2.832849109331200E+001 
-2.832833732982800E+001 -2.832817589575800E+001 -2.832800640995600E+001 -2.832782847245200E+001 
-2.832764166353200E+001 -2.832744554278400E+001 -2.832723964808400E+001 -2.832702349455000E+001 
-2.832679657343400E+001 -2.832655835096800E+001 -2.832630826715800E+001 -2.832604573451400E+001 
-2.832577013673600E+001 -2.832548082731800E+001 -2.832517712810800E+001 -2.832485832779000E+001 
-2.832452368030200E+001 -2.832417240317800E+001 -2.832380367582200E+001 -2.832341663769400E+001 
-2.832301038642400E+001 -2.832258397584200E+001 -2.832213641391400E+001 -2.832166666059000E+001 
-2.832117362556400E+001 -2.832065616592600E+001 -2.832011308372800E+001 -2.831954312342400E+001 
-2.831894496922600E+001 -2.831831724233400E+001 -2.831765849804400E+001 -2.831696722275800E+001 
-2.831624183085800E+001 -2.831548066144000E+001 -2.831468197494800E+001 -2.831384394964400E+001 
-2.831296467796200E+001 -2.831204216269600E+001 -2.831107431306600E+001 -2.831005894062000E+001 
-2.830899375497800E+001 -2.830787635943200E+001 -2.830670424637200E+001 -2.830547479255200E+001 
-2.830418525418800E+001 -2.830283276187800E+001 -2.830141431534200E+001 -2.829992677800200E+001 
-2.829836687134200E+001 -2.829673116911800E+001 -2.829501609133800E+001 -2.829321789808200E+001 
-2.829133268308000E+001 -2.828935636712400E+001 -2.828728469123400E+001 -2.828511320962000E+001 
-2.828283728242200E+001 -2.828045206820800E+001 -2.827795251623200E+001 -2.827533335843800E+001 