<UPF version="2.0.1">
<PP_INFO>
Generated using FHI98PP, converted with fhi2upf.x v.5.0.1
Author: Abinit web site
Generation date: 10-Jul-2012, PG
Pseudopotential type: SL
Element:  N
Functional: SLA-PW

Suggested minimum cutoff for wavefunctions:   0. Ry
Suggested minimum cutoff for charge density:   0. Ry
The Pseudo was generated with a Scalar-Relativistic Calculation
L component and cutoff radius for Local Potential:  2   0.0000

Valence configuration:
nl pn  l   occ       Rcut    Rcut US       E pseu
2s  2  0  2.00      0.000      0.000     0.000000
2p  2  1  3.00      0.000      0.000     0.000000
3d  3  2  0.00      0.000      0.000     0.000000
4f  4  3  0.00      0.000      0.000     0.000000

Generation configuration: not available.
Comment:
nitrogen, fhi98PP : Trouiller-Martins-type, LDA Ceperley/Alder Perdew/Wang (1992
</PP_INFO>
<!--                               -->
<!-- END OF HUMAN READABLE SECTION -->
<!--                               -->
<PP_HEADER generated="Generated using FHI98PP, converted with fhi2upf.x v.5.0.1"
author="Abinit web site"
date="10-Jul-2012, PG"
comment="nitrogen, fhi98PP : Trouiller-Martins-type, LDA Ceperley/Alder Perdew/Wang (1992"
element=" N"
pseudo_type="SL"
relativistic="scalar"
is_ultrasoft="F"
is_paw="F"
is_coulomb="F"
has_so="F"
has_wfc="F"
has_gipaw="F"
paw_as_gipaw="F"
core_correction="F"
functional="SLA-PW"
z_valence="5.000000000000000E+000"
total_psenergy="0.000000000000000E+000"
wfc_cutoff="0.000000000000000E+000"
rho_cutoff="0.000000000000000E+000"
l_max="3"
l_max_rho="0"
l_local="2"
mesh_size="467"
number_of_wfc="4"
number_of_proj="3"/>
<PP_MESH dx="2.439988682353512E-002" mesh="467" xmin="-5.075173815233830E+000" rmax="7.742140521120200E+001"
zmesh="7.000000000000000E+000">
<PP_R type="real" size="467" columns="4">
8.928571428571400E-004  9.149107142857100E-004  9.375090089285700E-004  9.606654814491100E-004
9.843939188408999E-004  1.008708448636300E-003  1.033623547317600E-003  1.059154048936300E-003
1.085315153945100E-003  1.112122438247500E-003  1.139591862472200E-003  1.167739781475300E-003
1.196582954077700E-003  1.226138553043400E-003  1.256424175303600E-003  1.287457852433600E-003
1.319258061388700E-003  1.351843735505000E-003  1.385234275772000E-003  1.419449562383600E-003
1.454509966574400E-003  1.490436362748800E-003  1.527250140908700E-003  1.564973219389200E-003
1.603628057908100E-003  1.643237670938400E-003  1.683825641410600E-003  1.725416134753400E-003
1.768033913281800E-003  1.811704350939900E-003  1.856453448408100E-003  1.902307848583800E-003
1.949294852443800E-003  1.997442435299200E-003  2.046779263451100E-003  2.097334711258300E-003
2.149138878626400E-003  2.202222608928500E-003  2.256617507369000E-003  2.312355959801000E-003
2.369471152008100E-003  2.427997089462700E-003  2.487968617572400E-003  2.549421442426500E-003
2.612392152054400E-003  2.676918238210100E-003  2.743038118693900E-003  2.810791160225700E-003
2.880217701883200E-003  2.951359079119700E-003  3.024257648374000E-003  3.098956812288800E-003
3.175501045552400E-003  3.253935921377500E-003  3.334308138635500E-003  3.416665549659800E-003
3.501057188736400E-003  3.587533301298200E-003  3.676145373840300E-003  3.766946164574200E-003
3.859989734839100E-003  3.955331481289700E-003  4.053028168877500E-003  4.153137964648800E-003
4.255720472375600E-003  4.360836768043300E-003  4.468549436214000E-003  4.578922607288400E-003
4.692021995688500E-003  4.807914938982000E-003  4.926670437974800E-003  5.048359197792800E-003
5.173053669978300E-003  5.300828095626800E-003  5.431758549588700E-003  5.565922985763600E-003
5.703401283511900E-003  5.844275295214700E-003  5.988628895006500E-003  6.136548028713100E-003
6.288120765022400E-003  6.443437347918400E-003  6.602590250412000E-003  6.765674229597200E-003
6.932786383068200E-003  7.104026206730000E-003  7.279495654036200E-003  7.459299196690900E-003
7.643543886849200E-003  7.832339420854401E-003  8.025798204549500E-003  8.224035420201800E-003
8.427169095080801E-003  8.635320171729299E-003  8.848612579971001E-003  9.067173310696300E-003
9.291132491470500E-003  9.520623464009800E-003  9.755782863570900E-003  9.996750700301101E-003
1.024367044259900E-002  1.049668910253100E-002  1.075595732336300E-002  1.102162946925000E-002
1.129386371714100E-002  1.157282215095400E-002  1.185867085808300E-002  1.215158002827700E-002
1.245172405497600E-002  1.275928163913400E-002  1.307443589562000E-002  1.339737446224200E-002
1.372828961146000E-002  1.406737836486300E-002  1.441484261047500E-002  1.477088922295300E-002
1.513573018676000E-002  1.550958272237300E-002  1.589266941561600E-002  1.628521835018200E-002
1.668746324343100E-002  1.709964358554400E-002  1.752200478210700E-002  1.795479830022500E-002
1.839828181824000E-002  1.885271937915100E-002  1.931838154781600E-002  1.979554557204700E-002
2.028449554767700E-002  2.078552258770400E-002  2.129892499562000E-002  2.182500844301200E-002
2.236408615155500E-002  2.291647907949800E-002  2.348251611276200E-002  2.406253426074700E-002
2.465687885698700E-002  2.526590376475500E-002  2.588997158774400E-002  2.652945388596200E-002
2.718473139694500E-002  2.785619426244900E-002  2.854424226073200E-002  2.924928504457200E-002
2.997174238517300E-002  3.071204442208700E-002  3.147063191931200E-002  3.224795652771900E-002
3.304448105395400E-002  3.386067973598700E-002  3.469703852546500E-002  3.555405537704400E-002
3.643224054485700E-002  3.733211688631500E-002  3.825422017340700E-002  3.919909941169100E-002
4.016731716715900E-002  4.115944990118800E-002  4.217608831374800E-002  4.321783769509700E-002
4.428531828616600E-002  4.537916564783400E-002  4.650003103933600E-002  4.764858180600700E-002
4.882550177661600E-002  5.003149167049800E-002  5.126726951475900E-002  5.253357107177400E-002
5.383115027724700E-002  5.516077968909500E-002  5.652325094741600E-002  5.791937524581700E-002
5.934998381438800E-002  6.081592841460400E-002  6.231808184644400E-002  6.385733846805200E-002
6.543461472821201E-002  6.705084971199900E-002  6.870700569988600E-002  7.040406874067300E-002
7.214304923856700E-002  7.392498255476000E-002  7.575092962386300E-002  7.762197758557200E-002
7.953924043193600E-002  8.150385967060400E-002  8.351700500446800E-002  8.557987502807900E-002
8.769369794127201E-002  8.985973228042200E-002  9.207926766774800E-002  9.435362557914199E-002
9.668416013094600E-002  9.907225888618100E-002  1.015193436806700E-001  1.040268714695800E-001
1.065963351948800E-001  1.092292646741900E-001  1.119272275116500E-001  1.146918300311800E-001
1.175247182329500E-001  1.204275787733100E-001  1.234021399690100E-001  1.264501728262400E-001
1.295734920950500E-001  1.327739573498000E-001  1.360534740963400E-001  1.394139949065200E-001
1.428575205807100E-001  1.463861013390500E-001  1.500018380421300E-001  1.537068834417700E-001
1.575034434627800E-001  1.613937785163100E-001  1.653802048456600E-001  1.694650959053500E-001
1.736508837742100E-001  1.779400606034400E-001  1.823351801003400E-001  1.868388590488200E-001
1.914537788673300E-001  1.961826872053500E-001  2.010283995793200E-001  2.059938010489300E-001
2.110818479348400E-001  2.162955695788300E-001  2.216380701474300E-001  2.271125304800700E-001
2.327222099829300E-001  2.384704485695000E-001  2.443606686491700E-001  2.503963771648100E-001
2.565811676807800E-001  2.629187225224900E-001  2.694128149688000E-001  2.760673114985300E-001
2.828861740925400E-001  2.898734625926300E-001  2.970333371186600E-001  3.043700605454900E-001
3.118880010409700E-001  3.195916346666800E-001  3.274855480429500E-001  3.355744410796100E-001
3.438631297742700E-001  3.523565490797000E-001  3.610597558419700E-001  3.699779318112600E-001
3.791163867270000E-001  3.884805614791600E-001  3.980760313476900E-001  4.079085093219800E-001
4.179838495022400E-001  4.283080505849400E-001  4.388872594343900E-001  4.497277747424200E-001
4.608360507785600E-001  4.722187012327900E-001  4.838825031532400E-001  4.958344009811200E-001
5.080815106853500E-001  5.206311239992800E-001  5.334907127620701E-001  5.466679333672900E-001
5.601706313214601E-001  5.740068459151000E-001  5.881848150091999E-001  6.027129799399300E-001
6.175999905444500E-001  6.328547103108900E-001  6.484862216555700E-001  6.645038313304700E-001
6.809170759643300E-001  6.977357277406500E-001  7.149698002158400E-001  7.326295542811700E-001
7.507255042719200E-001  7.692684242274300E-001  7.882693543058500E-001  8.077396073572100E-001
8.276907756589300E-001  8.481347378177000E-001  8.690836658418000E-001  8.905500323880901E-001
9.125466181880800E-001  9.350865196573300E-001  9.581831566928600E-001  9.818502806631800E-001
1.006101982595600E+000  1.030952701565700E+000  1.056417233294300E+000  1.082510738956700E+000
1.109248754208900E+000  1.136647198437900E+000  1.164722384239300E+000  1.193491027130000E+000
1.222970255500100E+000  1.253177620811000E+000  1.284131108045000E+000  1.315849146413700E+000
1.348350620330200E+000  1.381654880652300E+000  1.415781756204400E+000  1.450751565582700E+000
1.486585129252600E+000  1.523303781945100E+000  1.560929385359100E+000  1.599484341177500E+000
1.638991604404600E+000  1.679474697033400E+000  1.720957722050100E+000  1.763465377784800E+000
1.807022972616000E+000  1.851656440039700E+000  1.897392354108600E+000  1.944257945255100E+000
1.992281116502900E+000  2.041490460080500E+000  2.091915274444500E+000  2.143585581723300E+000
2.196532145591900E+000  2.250786489588000E+000  2.306380915880800E+000  2.363348524503100E+000
2.421723233058300E+000  2.481539796914800E+000  2.542833829898600E+000  2.605641825497100E+000
2.670001178586900E+000  2.735950207698000E+000  2.803528177828100E+000  2.872775323820500E+000
2.943732874318900E+000  3.016443076314500E+000  3.090949220299500E+000  3.167295666040900E+000
3.245527868992100E+000  3.325692407356200E+000  3.407837009817900E+000  3.492010583960400E+000
3.578263245384300E+000  3.666646347545200E+000  3.757212512329600E+000  3.850015661384200E+000
3.945111048220300E+000  4.042555291111400E+000  4.142406406801800E+000  4.244723845049800E+000
4.349568524022600E+000  4.457002866565900E+000  4.567090837370100E+000  4.679897981053100E+000
4.795491461185200E+000  4.913940100276400E+000  5.035314420753300E+000  5.159686686945900E+000
5.287130948113400E+000  5.417723082531800E+000  5.551540842670400E+000  5.688663901484300E+000
5.829173899851000E+000  5.973154495177300E+000  6.120691411208200E+000  6.271872489065000E+000
6.426787739544900E+000  6.585529396711700E+000  6.748191972810500E+000  6.914872314538900E+000
7.085669660708000E+000  7.260685701327500E+000  7.440024638150300E+000  7.623793246712600E+000
7.812100939906400E+000  8.005059833122100E+000  8.202784811000200E+000  8.405393595831899E+000
8.613006817648900E+000  8.825748086044900E+000  9.043744063770200E+000  9.267124542145300E+000
9.496022518336300E+000  9.730574274539199E+000  9.970919459120299E+000  1.021720116976100E+001
1.046956603865400E+001  1.072816431980800E+001  1.099314997850800E+001  1.126468078297700E+001
1.154291839831600E+001  1.182802848275500E+001  1.212018078627900E+001  1.241954925170000E+001
1.272631211821700E+001  1.304065202753700E+001  1.336275613261700E+001  1.369281620909300E+001
1.403102876945700E+001  1.437759518006300E+001  1.473272178101000E+001  1.509662000900100E+001
1.546950652322400E+001  1.585160333434700E+001  1.624313793670600E+001  1.664434344374200E+001
1.705545872680300E+001  1.747672855735500E+001  1.790840375272100E+001  1.835074132541400E+001
1.880400463615100E+001  1.926846355066400E+001  1.974439460036600E+001  2.023208114699500E+001
2.073181355132500E+001  2.124388934604300E+001  2.176861341289000E+001  2.230629816418900E+001
2.285726372884400E+001  2.342183814294700E+001  2.400035754507800E+001  2.459316637644100E+001
2.520061758593900E+001  2.582307284031200E+001  2.646090273946700E+001  2.711448703713200E+001
2.778421486694900E+001  2.847048497416300E+001  2.917370595302500E+001  2.989429649006500E+001
3.063268561336900E+001  3.138931294801900E+001  3.216462897783600E+001  3.295909531358800E+001
3.377318496783400E+001  3.460738263653900E+001  3.546218498766200E+001  3.633810095685700E+001
3.723565205049100E+001  3.815537265613800E+001  3.909781036074500E+001  4.006352627665500E+001
4.105309537568900E+001  4.206710683146800E+001  4.310616437020600E+001  4.417088663015000E+001
4.526190752991400E+001  4.637987664590300E+001  4.752545959905700E+001  4.869933845115400E+001
4.990221211089700E+001  5.113479675003600E+001  5.239782622976200E+001  5.369205253763700E+001
5.501824623531700E+001  5.637719691732900E+001  5.776971368118700E+001  5.919662560911300E+001
6.065878226165800E+001  6.215705418352100E+001  6.369233342185400E+001  6.526553405737400E+001
6.687759274859100E+001  6.852946928948100E+001  7.022214718093100E+001  7.195663421630000E+001
7.373396308144299E+001  7.555519196955400E+001  7.742140521120200E+001
</PP_R>
<PP_RAB type="real" size="467" columns="4">
2.178561323529915E-005  2.232371788221100E-005  2.287511371390169E-005  2.344012902263517E-005
2.401910020949418E-005  2.461237198466941E-005  2.522029757269034E-005  2.584323892273470E-005
2.648156692412804E-005  2.713566162715293E-005  2.780591246934328E-005  2.849271850733695E-005
2.919648865446720E-005  2.991764192423207E-005  3.065660767976129E-005  3.141382588945142E-005
3.218974738892063E-005  3.298483414942695E-005  3.379955955291844E-005  3.463440867387630E-005
3.548987856811921E-005  3.636647856875205E-005  3.726473058940035E-005  3.818516943495988E-005
3.912834312000306E-005  4.009481319506641E-005  4.108515508098507E-005  4.209995841148438E-005
4.313982738424783E-005  4.420538112063971E-005  4.529725403431914E-005  4.641609620896730E-005
4.756257378532832E-005  4.873736935782686E-005  4.994118238096541E-005  5.117472958577423E-005
5.243874540654334E-005  5.373398241808564E-005  5.506121178381153E-005  5.642122371487132E-005
5.781482794062902E-005  5.924285419076256E-005  6.070615268927369E-005  6.220559466070026E-005
6.374207284881872E-005  6.531650204818347E-005  6.692981964877386E-005  6.858298619410004E-005
7.027698595309250E-005  7.201282750613352E-005  7.379154434553608E-005  7.561419549086990E-005
7.748186611949600E-005  7.939566821264646E-005  8.135674121749825E-005  8.336625272557053E-005
8.542539916789220E-005  8.753540652733940E-005  8.969753106856553E-005  9.191306008596019E-005
9.418331267008138E-005  9.650964049303421E-005  9.889342861321079E-005  1.013360962999577E-004
1.038390978785661E-004  1.064039235961672E-004  1.090321005089933E-004  1.117251933915633E-004
1.144848056683368E-004  1.173125803683446E-004  1.202102011034413E-004  1.231793930706969E-004
1.262219240795435E-004  1.293396056043091E-004  1.325342938627336E-004  1.358078909211445E-004
1.391623458268953E-004  1.425996557688210E-004  1.461218672663108E-004  1.497310773877872E-004
1.534294349992676E-004  1.572191420437482E-004  1.611024548522292E-004  1.650816854870799E-004
1.691592031186095E-004  1.733374354356395E-004  1.776188700908991E-004  1.820060561821444E-004
1.865016057698442E-004  1.911081954323600E-004  1.958285678595392E-004  2.006655334856680E-004
2.056219721627644E-004  2.107008348751848E-004  2.159051454966015E-004  2.212380025903680E-004
2.267025812543501E-004  2.323021350113320E-004  2.380399977461133E-004  2.439195856904423E-004
2.499443994570076E-004  2.561180261235908E-004  2.624441413688309E-004  2.689265116606395E-004
2.755689964986701E-004  2.823755507121779E-004  2.893502268147793E-004  2.964971774170885E-004
3.038206576993042E-004  3.113250279444793E-004  3.190147561346931E-004  3.268944206112245E-004
3.349687128003369E-004  3.432424400065037E-004  3.517205282746616E-004  3.604080253230279E-004
3.693101035485081E-004  3.784320631061569E-004  3.877793350648885E-004  3.973574846409981E-004
4.071722145116187E-004  4.172293682100619E-004  4.275349336048520E-004  4.380950464648907E-004
4.489159941125599E-004  4.600042191671517E-004  4.713663233805796E-004  4.830090715680786E-004
4.949393956358209E-004  5.071643987080105E-004  5.196913593560913E-004  5.325277359321913E-004
5.456811710097311E-004  5.591594959336615E-004  5.729707354832327E-004  5.871231126496632E-004
6.016250535320988E-004  6.164851923543520E-004  6.317123766054935E-004  6.473156723076668E-004
6.633043694136598E-004  6.796879873381640E-004  6.964762806254291E-004  7.136792447568752E-004
7.313071221023718E-004  7.493704080183060E-004  7.678798570963447E-004  7.868464895666242E-004
8.062815978589282E-004  8.261967533260519E-004  8.466038131331839E-004  8.675149273175740E-004
8.889425460223183E-004  9.108994269090703E-004  9.333986427537249E-004  9.564535892297625E-004
9.800779928837190E-004  1.004285919307951E-003  1.029091781514873E-003  1.054510348518277E-003
1.080556754126681E-003  1.107246505953602E-003  1.134595494650668E-003  1.162620003368526E-003
1.191336717451744E-003  1.220762734372791E-003  1.250915573911792E-003  1.281813188587424E-003
1.313473974345538E-003  1.345916781511873E-003  1.379160926015225E-003  1.413226200887796E-003
1.448132888049709E-003  1.483901770384551E-003  1.520554144113032E-003  1.558111831472644E-003
1.596597193709997E-003  1.636033144394638E-003  1.676443163061201E-003  1.717851309188808E-003
1.760282236525756E-003  1.803761207767952E-003  1.848314109599831E-003  1.893967468106937E-003
1.940748464569187E-003  1.988684951644026E-003  2.037805469949635E-003  2.088139265057407E-003
2.139716304904312E-003  2.192567297635463E-003  2.246723709887048E-003  2.302217785521273E-003
2.359082564823629E-003  2.417351904174788E-003  2.477060496207913E-003  2.538243890464187E-003
2.600938514558686E-003  2.665181695868199E-003  2.731011683756327E-003  2.798467672344919E-003
2.867589823851835E-003  2.938419292501125E-003  3.010998249025884E-003  3.085369905776712E-003
3.161578542449443E-003  3.239669532447999E-003  3.319689369899463E-003  3.401685697335990E-003
3.485707334060163E-003  3.571804305211363E-003  3.660027871550217E-003  3.750430559977493E-003
3.843066194808895E-003  3.937989929820658E-003  4.035258281087159E-003  4.134929160630065E-003
4.237061910897576E-003  4.341717340096917E-003  4.448957758397190E-003  4.558847015029639E-003
4.671450536300972E-003  4.786835364547532E-003  4.905070198051803E-003  5.026225431943703E-003
5.150373200112746E-003  5.277587418155518E-003  5.407943827384030E-003  5.541520039920378E-003
5.678395584906467E-003  5.818651955853453E-003  5.962372659163115E-003  6.109643263844578E-003
6.260551452461519E-003  6.415187073337190E-003  6.573642194048729E-003  6.736011156241747E-003
6.902390631800830E-003  7.072879680406414E-003  7.247579808512257E-003  7.426595029782488E-003
7.610031927018272E-003  7.797999715615575E-003  7.990610308591353E-003  8.187978383213539E-003
8.390221449278758E-003  8.597459919076077E-003  8.809817179077290E-003  9.027419663400338E-003
9.250396929086373E-003  9.478881733234881E-003  9.713010112045655E-003  9.952921461813232E-003
1.019875862192019E-002  1.045066795988149E-002  1.070879945849061E-002  1.097330680511534E-002
1.124434748320175E-002  1.152208286603682E-002  1.180667831282793E-002  1.209830326715466E-002
1.239713135785329E-002  1.270334050239231E-002  1.301711301280159E-002  1.333863570421772E-002
1.366810000611184E-002  1.400570207626280E-002  1.435164291754642E-002  1.470612849760989E-002
1.506936987150094E-002  1.544158330732682E-002  1.582299041501782E-002  1.621381827826894E-002
1.661429958974212E-002  1.702467278960878E-002  1.744518220751201E-002  1.787607820803753E-002
1.831761733977618E-002  1.877006248806850E-002  1.923368303152385E-002  1.970875500240262E-002
2.019556125096189E-002  2.069439161386051E-002  2.120554308672293E-002  2.172932000096493E-002
2.226603420498887E-002  2.281600524985220E-002  2.337956057952340E-002  2.395703572583779E-002
2.454877450826694E-002  2.515512923862086E-002  2.577646093081302E-002  2.641313951580485E-002
2.706554406184449E-002  2.773406300017303E-002  2.841909435627691E-002  2.912104598687669E-002
2.984033582275227E-002  3.057739211757541E-002  3.133265370287875E-002  3.210657024933958E-002
3.289960253450026E-002  3.371222271710105E-002  3.454491461821315E-002  3.539817400928427E-002
3.627250890731377E-002  3.716843987732346E-002  3.808650034229228E-002  3.902723690074764E-002
3.999120965219649E-002  4.097899253060590E-002  4.199117364611125E-002  4.302835563517173E-002
4.409115601935840E-002  4.518020757303862E-002  4.629615870009071E-002  4.743967381998339E-002
4.861143376333695E-002  4.981213617729084E-002  5.104249594087022E-002  5.230324559061022E-002
5.359513575669912E-002  5.491893560988911E-002  5.627543331945280E-002  5.766543652244436E-002
5.908977280454809E-002  6.054929019281945E-002  6.204485766058219E-002  6.357736564479868E-002
6.514772657622575E-002  6.675687542265861E-002  6.840577024559728E-002  7.009539277066466E-002
7.182674897210090E-002  7.360086967170991E-002  7.541881115260193E-002  7.728165578807125E-002
7.919051268603637E-002  8.114651834938134E-002  8.315083735261111E-002  8.520466303522055E-002
8.730921821219241E-002  8.946575590203130E-002  9.167556007281230E-002  9.393994640661220E-002
9.626026308285333E-002  9.863789158100124E-002  1.010742475030507E-001  1.035707814163760E-001
1.061289797173621E-001  1.087503655163796E-001  1.114364995446347E-001  1.141889810833861E-001
1.170094489161480E-001  1.198995823043750E-001  1.228611019872948E-001  1.258957712063808E-001
1.290053967551769E-001  1.321918300550297E-001  1.354569682573906E-001  1.388027553733467E-001
1.422311834310692E-001  1.457442936618162E-001  1.493441777152635E-001  1.530329789048295E-001
1.568128934837787E-001  1.606861719528290E-001  1.646551204000644E-001  1.687221018739455E-001
1.728895377902317E-001  1.771599093736507E-001  1.815357591351802E-001  1.860196923858188E-001
1.906143787877485E-001  1.953225539438062E-001  2.001470210262178E-001  2.050906524455653E-001
2.101563915609696E-001  2.153472544325273E-001  2.206663316170105E-001  2.261167900079500E-001
2.317018747211467E-001  2.374249110267588E-001  2.432893063291193E-001  2.492985521954590E-001
2.554562264346845E-001  2.617659952276029E-001  2.682316153097428E-001  2.748569362078898E-001
2.816459025322117E-001  2.886025563247718E-001  2.957310394659926E-001  3.030355961408003E-001
3.105205753654783E-001  3.181904335770066E-001  3.260497372863547E-001  3.341031657973364E-001
3.423555139925161E-001  3.508116951881413E-001  3.594767440592748E-001  3.683558196375402E-001
3.774542083826039E-001  3.867773273296388E-001  3.963307273146962E-001  4.061200962793536E-001
4.161512626574676E-001  4.264301988451062E-001  4.369630247565641E-001  4.477560114680705E-001
4.588155849513141E-001  4.701483298996132E-001  4.817609936481483E-001  4.936604901912566E-001
5.058539042989617E-001  5.183484957351527E-001  5.311517035798047E-001  5.442711506582408E-001
5.577146480794880E-001  5.714901998870648E-001  5.856060078242804E-001  6.000704762175297E-001
6.148922169801004E-001  6.300800547395164E-001  6.456430320915653E-001  6.615904149842310E-001
6.779316982343375E-001  6.946766111807344E-001  7.118351234769028E-001  7.294174510267892E-001
7.474340620671361E-001  7.658956834001892E-001  7.848133067801966E-001  8.041981954576540E-001
8.240618908854672E-001  8.444162195903261E-001  8.652733002142190E-001  8.866455507295040E-001
9.085456958325138E-001  9.309867745195738E-001  9.539821478502168E-001  9.775455069021074E-001
1.001690880922605E+000  1.026432645681380E+000  1.051785532029728E+000  1.077764634670861E+000
1.104385421147214E+000  1.131663741049553E+000  1.159615835453482E+000  1.188258346589190E+000
1.217608327749930E+000  1.247683253445350E+000  1.278501029805453E+000  1.310080005241644E+000
1.342438981371122E+000  1.375597224210981E+000  1.409574475648991E+000  1.444390965197538E+000
1.480067422037915E+000  1.516625087362253E+000  1.554085727020101E+000  1.592471644477502E+000
1.631805694096093E+000  1.672111294740262E+000  1.713412443720342E+000  1.755733731080235E+000
1.799100354237926E+000  1.843538132987587E+000  1.889073524872381E+000
</PP_RAB>
</PP_MESH>
<PP_LOCAL type="real" size="467" columns="4">
-1.891203274578400E+001 -1.891203327263280E+001 -1.891203376622140E+001 -1.891203422632300E+001
-1.891203465266540E+001 -1.891203504492860E+001 -1.891203540274360E+001 -1.891203572569120E+001
-1.891203601329920E+001 -1.891203626504160E+001 -1.891203648033580E+001 -1.891203665854140E+001
-1.891203679895680E+001 -1.891203690081840E+001 -1.891203696329620E+001 -1.891203698549300E+001
-1.891203696644060E+001 -1.891203690509740E+001 -1.891203680034480E+001 -1.891203665098420E+001
-1.891203645573400E+001 -1.891203621322560E+001 -1.891203592199900E+001 -1.891203558050000E+001
-1.891203518707560E+001 -1.891203473996880E+001 -1.891203423731480E+001 -1.891203367713580E+001
-1.891203305733560E+001 -1.891203237569500E+001 -1.891203162986460E+001 -1.891203081736020E+001
-1.891202993555540E+001 -1.891202898167620E+001 -1.891202795279220E+001 -1.891202684581100E+001
-1.891202565746940E+001 -1.891202438432580E+001 -1.891202302275080E+001 -1.891202156891920E+001
-1.891202001880060E+001 -1.891201836814800E+001 -1.891201661248920E+001 -1.891201474711440E+001
-1.891201276706600E+001 -1.891201066712500E+001 -1.891200844179940E+001 -1.891200608531060E+001
-1.891200359157900E+001 -1.891200095420960E+001 -1.891199816647620E+001 -1.891199522130560E+001
-1.891199211126020E+001 -1.891198882851980E+001 -1.891198536486320E+001 -1.891198171164820E+001
-1.891197785979100E+001 -1.891197379974400E+001 -1.891196952147260E+001 -1.891196501443240E+001
-1.891196026754220E+001 -1.891195526915900E+001 -1.891195000704900E+001 -1.891194446835840E+001
-1.891193863958340E+001 -1.891193250653700E+001 -1.891192605431600E+001 -1.891191926726440E+001
-1.891191212893660E+001 -1.891190462205780E+001 -1.891189672848320E+001 -1.891188842915460E+001
-1.891187970405440E+001 -1.891187053215860E+001 -1.891186089138600E+001 -1.891185075854640E+001
-1.891184010928440E+001 -1.891182891802240E+001 -1.891181715789900E+001 -1.891180480070500E+001
-1.891179181681700E+001 -1.891177817512660E+001 -1.891176384296580E+001 -1.891174878603020E+001
-1.891173296829760E+001 -1.891171635194120E+001 -1.891169889724120E+001 -1.891168056248940E+001
-1.891166130389100E+001 -1.891164107546040E+001 -1.891161982891140E+001 -1.891159751354400E+001
-1.891157407612340E+001 -1.891154946075400E+001 -1.891152360874680E+001 -1.891149645848060E+001
-1.891146794525620E+001 -1.891143800114360E+001 -1.891140655482000E+001 -1.891137353140300E+001
-1.891133885227180E+001 -1.891130243488320E+001 -1.891126419257540E+001 -1.891122403436340E+001
-1.891118186472560E+001 -1.891113758337720E+001 -1.891109108503460E+001 -1.891104225916740E+001
-1.891099098973760E+001 -1.891093715492740E+001 -1.891088062685200E+001 -1.891082127126020E+001
-1.891075894721820E+001 -1.891069350677880E+001 -1.891062479463600E+001 -1.891055264775940E+001
-1.891047689501360E+001 -1.891039735675800E+001 -1.891031384442660E+001 -1.891022616008860E+001
-1.891013409598560E+001 -1.891003743404880E+001 -1.890993594539120E+001 -1.890982938977520E+001
-1.890971751505580E+001 -1.890960005659460E+001 -1.890947673664840E+001 -1.890934726372580E+001
-1.890921133191520E+001 -1.890906862017820E+001 -1.890891879161160E+001 -1.890876149267220E+001
-1.890859635236660E+001 -1.890842298140020E+001 -1.890824097128820E+001 -1.890804989342320E+001
-1.890784929809900E+001 -1.890763871348900E+001 -1.890741764457560E+001 -1.890718557203160E+001
-1.890694195104680E+001 -1.890668621010240E+001 -1.890641774968680E+001 -1.890613594095360E+001
-1.890584012431680E+001 -1.890552960798180E+001 -1.890520366641020E+001 -1.890486153871240E+001
-1.890450242697020E+001 -1.890412549448160E+001 -1.890372986392680E+001 -1.890331461545320E+001
-1.890287878467320E+001 -1.890242136057400E+001 -1.890194128333520E+001 -1.890143744204820E+001
-1.890090867233780E+001 -1.890035375387820E+001 -1.889977140780040E+001 -1.889916029398820E+001
-1.889851900825620E+001 -1.889784607940620E+001 -1.889713996615620E+001 -1.889639905393880E+001
-1.889562165156140E+001 -1.889480598772380E+001 -1.889395020738600E+001 -1.889305236798260E+001
-1.889211043547200E+001 -1.889112228022020E+001 -1.889008567270280E+001 -1.888899827902580E+001
-1.888785765624880E+001 -1.888666124750420E+001 -1.888540637690260E+001 -1.888409024420880E+001
-1.888270991927840E+001 -1.888126233624060E+001 -1.887974428740860E+001 -1.887815241690200E+001
-1.887648321396200E+001 -1.887473300593300E+001 -1.887289795089080E+001 -1.887097402988540E+001
-1.886895703876920E+001 -1.886684257957240E+001 -1.886462605138800E+001 -1.886230264072040E+001
-1.885986731124400E+001 -1.885731479291880E+001 -1.885463957039240E+001 -1.885183587062080E+001
-1.884889764962100E+001 -1.884581857826420E+001 -1.884259202700660E+001 -1.883921104943960E+001
-1.883566836452700E+001 -1.883195633738560E+001 -1.882806695844400E+001 -1.882399182079620E+001
-1.881972209554820E+001 -1.881524850493220E+001 -1.881056129293820E+001 -1.880565019318600E+001
-1.880050439373380E+001 -1.879511249848800E+001 -1.878946248484500E+001 -1.878354165716080E+001
-1.877733659560960E+001 -1.877083309994840E+001 -1.876401612766560E+001 -1.875686972594960E+001
-1.874937695686220E+001 -1.874151981506020E+001 -1.873327913735520E+001 -1.872463450335780E+001
-1.871556412639180E+001 -1.870604473382800E+001 -1.869605143592040E+001 -1.868555758219680E+001
-1.867453460439220E+001 -1.866295184488460E+001 -1.865077636954580E+001 -1.863797276388960E+001
-1.862450291137940E+001 -1.861032575273440E+001 -1.859539702508320E+001 -1.857966897981560E+001
-1.856309007802420E+001 -1.854560466247780E+001 -1.852715260514860E+001 -1.850766892943300E+001
-1.848708340634940E+001 -1.846532012419460E+001 -1.844229703138320E+001 -1.841792545249860E+001
-1.839210957795380E+001 -1.836474592811440E+001 -1.833572279326760E+001 -1.830491965147000E+001
-1.827220656705260E+001 -1.823744357345040E+001 -1.820048004504360E+001 -1.816115406388740E+001